
                                 *****************
                                 * O   R   C   A *
                                 *****************

                                            #,                                       
                                            ###                                      
                                            ####                                     
                                            #####                                    
                                            ######                                   
                                           ########,                                 
                                     ,,################,,,,,                         
                               ,,#################################,,                 
                          ,,##########################################,,             
                       ,#########################################, ''#####,          
                    ,#############################################,,   '####,        
                  ,##################################################,,,,####,       
                ,###########''''           ''''###############################       
              ,#####''   ,,,,##########,,,,          '''####'''          '####       
            ,##' ,,,,###########################,,,                        '##       
           ' ,,###''''                  '''############,,,                           
         ,,##''                                '''############,,,,        ,,,,,,###''
      ,#''                                            '''#######################'''  
     '                                                          ''''####''''         
             ,#######,   #######,   ,#######,      ##                                
            ,#'     '#,  ##    ##  ,#'     '#,    #''#        ,####,   ,####,        
            ##       ##  ##   ,#'  ##            #'  '#       #'       #'  '#        
            ##       ##  #######   ##           ,######,      #####,   #    #        
            '#,     ,#'  ##    ##  '#,     ,#' ,#      #,     #,   #   #,  ,#        
             '#######'   ##     ##  '#######'  #'      '#     '####' # '####'        



                #########################################################
                #                        -***-                          #
                #          Department of theory and spectroscopy        #
                #                                                       #
                #                      Frank Neese                      #
                #                                                       #
                #     Directorship, Architecture, Infrastructure        #
                #                    SHARK, DRIVERS                     #
                #        Core code/Algorithms in most modules           #
                #                                                       #
                #        Max Planck Institute fuer Kohlenforschung      #
                #                Kaiser Wilhelm Platz 1                 #
                #                 D-45470 Muelheim/Ruhr                 #
                #                      Germany                          #
                #                                                       #
                #                  All rights reserved                  #
                #                        -***-                          #
                #########################################################


                         Program Version 6.0.1  -  RELEASE   -


 With contributions from (in alphabetic order):
[Max-Planck-Institut fuer Kohlenforschung]                               
  Daniel Aravena         : Magnetic Suceptibility                        
  Michael Atanasov       : Ab Initio Ligand Field Theory (pilot matlab implementation)
  Alexander A. Auer      : GIAO ZORA, VPT2 properties, NMR spectrum      
  Ute Becker             : All parallelization in ORCA, NUMFREQ, NUMCALC 
  Giovanni Bistoni       : ED, misc. LED, open-shell LED, HFLD           
  Martin Brehm           : Molecular dynamics                            
  Dmytro Bykov           : pre 5.0 version of the SCF Hessian            
  Marcos Casanova-Páez   : Triplet and SCS-CIS(D). UHF-(DLPNO)-IP/EA/STEOM-CCSD. UHF-CVS-IP/STEOM-CCSD   
  Vijay G. Chilkuri      : MRCI spin determinant printing, contributions to CSF-ICE 
  Pauline Colinet        : FMM embedding                                 
  Dipayan Datta          : RHF DLPNO-CCSD density                        
  Achintya Kumar Dutta   : EOM-CC, STEOM-CC                              
  Nicolas Foglia         : Exact transition moments, OPA infrastructure, MCD improvements    
  Dmitry Ganyushin       : Spin-Orbit,Spin-Spin,Magnetic field MRCI      
  Miquel Garcia-Rates    : C-PCM and meta-GGA Hessian, CCSD/C-PCM, Gaussian charge scheme 
  Tiago L. C. Gouveia    : GS-ROHF, GS-ROCIS                             
  Yang Guo               : DLPNO-NEVPT2, F12-NEVPT2, CIM, IAO-localization        
  Andreas Hansen         : Spin unrestricted coupled pair/coupled cluster methods 
  Ingolf Harden          : AUTO-CI MPn and infrastructure                
  Benjamin Helmich-Paris : MC-RPA, TRAH-(SCF,CASSCF), AVAS, COSX integrals, SCF dyn. polar. 
  Lee Huntington         : MR-EOM, pCC                                   
  Robert Izsak           : Overlap fitted RIJCOSX, COSX-SCS-MP3, EOM     
  Riya Kayal             : Wick's Theorem for AUTO-CI, AUTO-CI UHF-CCSDT 
  Emily Kempfer          : AUTO-CI, RHF CISDT and CCSDT                  
  Christian Kollmar      : KDIIS, OOCD, Brueckner-CCSD(T), CCSD density, CASPT2, CASPT2-K, improved NEVPT2 
  Axel Koslowski         : Symmetry handling                             
  Simone Kossmann        : meta-GGA functionals, TD-DFT gradient, OOMP2, (MP2 Hessian; deprecated post 5.0) 
  Lucas Lang             : DCDCAS                                        
  Marvin Lechner         : AUTO-CI (C++ implementation), FIC-MRCC        
  Spencer Leger          : CASSCF response                               
  Dagmar Lenk            : GEPOL surface, SMD, ORCA-2-JSON               
  Dimitrios Liakos       : Extrapolation schemes; Compound Job, initial MDCI parallelization 
  Dimitrios Manganas     : Further ROCIS development; embedding schemes. LFT, Crystal Embedding 
  Dimitrios Pantazis     : SARC Basis sets                               
  Anastasios Papadopoulos: AUTO-CI, single reference methods and gradients 
  Taras Petrenko         : pre 6.0 DFT Hessian and TD-DFT gradient, (ASA, deprecated), ECA, 1-Electron XAS/XES, NRVS 
  Peter Pinski           : DLPNO-MP2, DLPNO-MP2 Gradient                 
  Christoph Reimann      : Effective Core Potentials                     
  Marius Retegan         : Local ZFS, SOC                                
  Christoph Riplinger    : Optimizer, TS searches, QM/MM, DLPNO-CCSD(T), (RO)-DLPNO pert. Triples 
  Michael Roemelt        : Original ROCIS implementation                 
  Masaaki Saitow         : Open-shell DLPNO-CCSD energy and density      
  Barbara Sandhoefer     : DKH picture change effects                    
  Kantharuban Sivalingam : CASSCF convergence/infrastructure, NEVPT2 and variants, FIC-MRCI 
  Bernardo de Souza      : ESD, SOC TD-DFT                               
  Georgi L. Stoychev     : AutoAux, RI-MP2 NMR, DLPNO-MP2 response, X2C  
  Van Anh Tran           : RI-MP2 g-tensors                              
  Willem Van den Heuvel  : Paramagnetic NMR                              
  Zikuan Wang            : NOTCH, Electric field optimization            
  Frank Wennmohs         : Technical directorship and infrastructure     
  Hang Xu                : AUTO-CI-Response properties                   
                                                                         
[FACCTs GmbH]                                                            
  Markus Bursch, Miquel Garcia-Rates, Christoph Riplinger, Bernardo de Souza, Georgi L. Stoychev 
                                                                 
  APM, Basis sets (HGBS, AHGBS, def-TZVP (Ac-Lr), def2-XVPD (La-Lu)), CI-OPT, improved COSX, DLPNO-Multilevel,           
  DOCKER, DRACO, updates on ESD, GOAT, IRC, LR-CPCM, MBIS, meta-GGA TD-DFT gradient, ML-optimized integration grids, 
  MM, NACMEs, nearIR, NEB, NEB-TS, NL-DFT gradient (VV10), 2- and 3-layer-ONIOM, interface openCOSMO-RS, QMMM,   
  Crystal-QMMM, SF, symmetry and pop. for TD-DFT, r2SCAN hybrids, SOLVATOR                                   
                                                                         
[Other institutions]                                                     
  V. Asgeirsson          : NEB                                           
  Christoph Bannwarth    : sTDA-DFT, sTD-DFT, PBEh-3c, B97-3c, D3        
  Sebastian Ehlert       : rSCAN, r2SCAN, r2SCAN-3c, D4, dhf basis sets  
  Marvin Friede          : D4 for Fr, Ra, Ac-Lr                          
  Lars Goerigk           : TD-DFT with DH, B97 family of functionals     
  Stefan Grimme          : VdW corrections, initial TS optimization, DFT functionals, gCP, sTDA/sTD-DF 
  Waldemar Hujo          : DFT-NL                                        
  H. Jonsson             : NEB                                           
  Holger Kruse           : gCP                                           
  Marcel Mueller         : wB97X-3c, vDZP basis set                      
  Hagen Neugebauer       : wr2SCAN                                       
  Tobias Risthaus        : range-separated hybrid DFT                    
  Lukas Wittmann         : regularized MP2, r2SCAN double-hybrids, wr2SCAN        
                                                                         
We gratefully acknowledge several colleagues who have allowed us to      
interface, adapt or use parts of their codes:                            
  Ed Valeev, F. Pavosevic, A. Kumar             : LibInt (2-el integral package), F12 methods 
  Garnet Chan, S. Sharma, J. Yang, R. Olivares  : DMRG                   
  Ulf Ekstrom                                   : XCFun DFT Library      
  Mihaly Kallay                                 : mrcc  (arbitrary order and MRCC methods)
  Frank Weinhold                                : gennbo (NPA and NBO analysis)           
  Simon Mueller                                 : openCOSMO-RS                            
  Christopher J. Cramer and Donald G. Truhlar   : smd solvation model                     
  S Lehtola, MJT Oliveira, MAL Marques          : LibXC Library                           
  Liviu Ungur et al                             : ANISO software                          


 Your calculation uses the libint2 library for the computation of 2-el integrals
 For citations please refer to: http://libint.valeyev.net

 Your ORCA version has been built with support for libXC version: 6.2.2
 For citations please refer to: https://libxc.gitlab.io

 This ORCA versions uses:
   CBLAS   interface :  Fast vector & matrix operations
   LAPACKE interface :  Fast linear algebra routines
   SCALAPACK package :  Parallel linear algebra routines
   Shared memory     :  Shared parallel matrices
   BLAS/LAPACK       :  OpenBLAS 0.3.27  USE64BITINT DYNAMIC_ARCH NO_AFFINITY SkylakeX SINGLE_THREADED
        Core in use  :  SkylakeX
   Copyright (c) 2011-2014, The OpenBLAS Project


================================================================================

----- Orbital basis set information -----
Your calculation utilizes the basis: 6-31G*
   H-He, Li-Ne : W. J. Hehre, R. Ditchfield and J.A. Pople, J. Chem. Phys. 56, 2257 (1972).
                 Note: He and Ne are unpublished basis sets taken from the Gaussian program.
                 Note: Li and B from J. D. Dill and J. A. Pople, J. Chem. Phys. 62, 2921 (1975).
   Na - Ar     : M. M. Francl, W. J. Pietro, W. J. Hehre, J. S. Binkley, M. S. Gordon, 
                 D. J. DeFrees and J. A. Pople, J. Chem. Phys. 77, 3654 (1982).
   K - Zn      : V. A. Rassolov, J. A. Pople, M. A. Ratner, and T. L. Windus, J. Chem. Phys. 109, 1223 (1998).

================================================================================
                                        WARNINGS
                       Please study these warnings very carefully!
================================================================================


================================================================================
                                       INPUT FILE
================================================================================
NAME = frag.inp
|  1> !HF 6-31G* EnGrad
|  2> %pal nprocs 1 end
|  3> *xyz 0 1
|  4> O 21.31548000 47.19077000 40.87238000
|  5> H 22.11097000 46.98487000 41.16553000
|  6> H 20.96265000 46.41737000 40.67613000
|  7> O 20.35232000 49.63574000 40.01023000
|  8> H 20.79050000 48.92392000 40.26012000
|  9> H 19.54326000 49.49202000 40.30334000
| 10> O 21.78987000 47.25010000 37.48256000
| 11> H 21.67133000 47.22017000 38.34638000
| 12> H 21.14108000 47.76263000 37.20411000
| 13> O 22.25294000 44.28778000 39.87163000
| 14> H 22.68414000 43.83080000 40.47691000
| 15> H 22.81575000 44.91633000 39.64956000
| 16> *
| 17> 
| 18>                          ****END OF INPUT****
================================================================================

                     *******************************
                     * Energy+Gradient Calculation *
                     *******************************

---------------------------------
CARTESIAN COORDINATES (ANGSTROEM)
---------------------------------
  O     21.315480   47.190770   40.872380
  H     22.110970   46.984870   41.165530
  H     20.962650   46.417370   40.676130
  O     20.352320   49.635740   40.010230
  H     20.790500   48.923920   40.260120
  H     19.543260   49.492020   40.303340
  O     21.789870   47.250100   37.482560
  H     21.671330   47.220170   38.346380
  H     21.141080   47.762630   37.204110
  O     22.252940   44.287780   39.871630
  H     22.684140   43.830800   40.476910
  H     22.815750   44.916330   39.649560

----------------------------
CARTESIAN COORDINATES (A.U.)
----------------------------
  NO LB      ZA    FRAG     MASS         X           Y           Z
   0 O     8.0000    0    15.999   40.280420   89.177631   77.237605
   1 H     1.0000    0     1.008   41.783678   88.788537   77.791578
   2 H     1.0000    0     1.008   39.613668   87.716117   76.866746
   3 O     8.0000    0    15.999   38.460311   93.797955   75.608377
   4 H     1.0000    0     1.008   39.288351   92.452810   76.080601
   5 H     1.0000    0     1.008   36.931409   93.526364   76.162275
   6 O     8.0000    0    15.999   41.176887   89.289749   70.831773
   7 H     1.0000    0     1.008   40.952879   89.233189   72.464156
   8 H     1.0000    0     1.008   39.950851   90.258290   70.305579
   9 O     8.0000    0    15.999   42.051962   83.691775   75.346461
  10 H     1.0000    0     1.008   42.866812   82.828208   76.490275
  11 H     1.0000    0     1.008   43.115519   84.879563   74.926810

--------------------------------
INTERNAL COORDINATES (ANGSTROEM)
--------------------------------
 O      0   0   0     0.000000000000     0.00000000     0.00000000
 H      1   0   0     0.872431127712     0.00000000     0.00000000
 H      1   2   0     0.872439471482   103.59872274     0.00000000
 O      1   2   3     2.765656903703   129.11896367   197.01747687
 H      4   1   2     0.872430190273     9.76862677    18.30230780
 H      4   1   2     0.872437386922    94.16296827   213.12954087
 O      5   4   6     3.393413229022   108.41619438   115.19435551
 H      7   5   4     0.872429096775    33.53678511   194.84682685
 H      7   5   4     0.872439033687    75.66802933   340.40737457
 O      3   1   2     2.616719721751   126.24180712   329.77871731
 H     10   3   1     0.872426523439   117.17456234    76.98324549
 H     10   3   1     0.872436406565    79.04835924   337.20315741

---------------------------
INTERNAL COORDINATES (A.U.)
---------------------------
 O      0   0   0     0.000000000000     0.00000000     0.00000000
 H      1   0   0     1.648655902083     0.00000000     0.00000000
 H      1   2   0     1.648671669524   103.59872274     0.00000000
 O      1   2   3     5.226334128387   129.11896367   197.01747687
 H      4   1   2     1.648654130581     9.76862677    18.30230780
 H      4   1   2     1.648667730277    94.16296827   213.12954087
 O      5   4   6     6.412621662077   108.41619438   115.19435551
 H      7   5   4     1.648652064169    33.53678511   194.84682685
 H      7   5   4     1.648670842211    75.66802933   340.40737457
 O      3   1   2     4.944883643340   126.24180712   329.77871731
 H     10   3   1     1.648647201269   117.17456234    76.98324549
 H     10   3   1     1.648665877670    79.04835924   337.20315741

---------------------
BASIS SET INFORMATION
---------------------
There are 2 groups of distinct atoms

 Group   1 Type O   : 10s4p1d contracted to 3s2p1d pattern {631/31/1}
 Group   2 Type H   : 4s contracted to 2s pattern {31}

Atom   0O    basis set group =>   1
Atom   1H    basis set group =>   2
Atom   2H    basis set group =>   2
Atom   3O    basis set group =>   1
Atom   4H    basis set group =>   2
Atom   5H    basis set group =>   2
Atom   6O    basis set group =>   1
Atom   7H    basis set group =>   2
Atom   8H    basis set group =>   2
Atom   9O    basis set group =>   1
Atom  10H    basis set group =>   2
Atom  11H    basis set group =>   2
------------------------------------------------------------------------------
                             ORCA STARTUP CALCULATIONS
------------------------------------------------------------------------------
------------------------------------------------------------------------------
                   ___                                                        
                  /   \      - P O W E R E D   B Y -                         
                 /     \                                                     
                 |  |  |   _    _      __       _____    __    __             
                 |  |  |  | |  | |    /  \     |  _  \  |  |  /  |          
                  \  \/   | |  | |   /    \    | | | |  |  | /  /          
                 / \  \   | |__| |  /  /\  \   | |_| |  |  |/  /          
                |  |  |   |  __  | /  /__\  \  |    /   |      \           
                |  |  |   | |  | | |   __   |  |    \   |  |\   \          
                \     /   | |  | | |  |  |  |  | |\  \  |  | \   \       
                 \___/    |_|  |_| |__|  |__|  |_| \__\ |__|  \__/        
                                                                              
                      - O R C A' S   B I G   F R I E N D -                    
                                      &                                       
                       - I N T E G R A L  F E E D E R -                       
                                                                              
 v1 FN, 2020, v2 2021, v3 2022-2024                                           
------------------------------------------------------------------------------


----------------------
SHARK INTEGRAL PACKAGE
----------------------

Number of atoms                             ...     12
Number of basis functions                   ...     72
Number of shells                            ...     40
Maximum angular momentum                    ...      2
Integral batch strategy                     ... SHARK/LIBINT Hybrid
RI-J (if used) integral strategy            ... SPLIT-RIJ (Revised 2003 algorithm where possible)
Printlevel                                  ...      1
Contraction scheme used                     ... SEGMENTED contraction
Prescreening option                         ... SCHWARTZ
   Thresh                                   ... 2.500e-11
   Tcut                                     ... 2.500e-12
   Tpresel                                  ... 2.500e-12 
Coulomb Range Separation                    ... NOT USED
Exchange Range Separation                   ... NOT USED
Multipole approximations                    ... NOT USED
Finite Nucleus Model                        ... NOT USED
CABS basis                                  ... NOT available
Auxiliary Coulomb fitting basis             ... NOT available
Auxiliary J/K fitting basis                 ... NOT available
Auxiliary Correlation fitting basis         ... NOT available
Auxiliary 'external' fitting basis          ... NOT available

Checking pre-screening integrals            ... done (  0.0 sec) Dimension = 40
Check shell pair data                       ... done (  0.0 sec)
Shell pair information
Shell pair cut-off parameter TPreSel        ...   2.5e-12
Total number of shell pairs                 ...       820
Shell pairs after pre-screening             ...       744
Total number of primitive shell pairs       ...      4386
Primitive shell pairs kept                  ...      2588
          la=0 lb=0:    366 shell pairs
          la=1 lb=0:    204 shell pairs
          la=1 lb=1:     35 shell pairs
          la=2 lb=0:    100 shell pairs
          la=2 lb=1:     30 shell pairs
          la=2 lb=2:      9 shell pairs

Calculating one electron integrals          ... done (  0.0 sec)
Calculating Nuclear repulsion               ... done (  0.0 sec) ENN=    129.702542499676 Eh

Diagonalization of the overlap matrix:
Smallest eigenvalue                        ... 3.036e-02
Time for diagonalization                   ...    0.001 sec
Threshold for overlap eigenvalues          ... 1.000e-07
Number of eigenvalues below threshold      ... 0
Time for construction of square roots      ...    0.004 sec
Total time needed                          ...    0.010 sec

-------------------
DFT GRID GENERATION
-------------------

General Integration Accuracy     IntAcc      ... 4.388
Radial Grid Type                 RadialGrid  ... OptM3 with GC (2021)
Angular Grid (max. ang.)         AngularGrid ... 4 (Lebedev-302)
Angular grid pruning method      GridPruning ... 4 (adaptive)
Weight generation scheme         WeightScheme... mBecke (2022)
Basis function cutoff            BFCut       ... 1.0000e-11
Integration weight cutoff        WCut        ... 1.0000e-14
Partially contracted basis set               ... off
Rotationally invariant grid construction     ... off
Angular grids for H and He will be reduced by one unit

Total number of grid points                  ...    50700
Total number of batches                      ...      798
Average number of points per batch           ...       63
Average number of grid points per atom       ...     4225
Initializing property integral containers    ... done (  0.0 sec)

SHARK setup successfully completed in   0.5 seconds

Maximum memory used throughout the entire STARTUP-calculation: 17.4 MB
-------------------------------------------------------------------------------
                                 ORCA GUESS
                   Start orbitals & Density for SCF / CASSCF
-------------------------------------------------------------------------------

------------
SCF SETTINGS
------------
Hamiltonian:
 Ab initio Hamiltonian  Method          .... Hartree-Fock(GTOs)


General Settings:
 Integral files         IntName         .... frag
 Hartree-Fock type      HFTyp           .... RHF
 Total Charge           Charge          ....    0
 Multiplicity           Mult            ....    1
 Number of Electrons    NEL             ....   40
 Basis Dimension        Dim             ....   72
 Nuclear Repulsion      ENuc            ....    129.7025424997 Eh

Convergence Acceleration:
 AO-DIIS                CNVDIIS         .... on
   Start iteration      DIISMaxIt       ....    12
   Startup error        DIISStart       ....  0.200000
   # of expansion vecs  DIISMaxEq       ....     5
   Bias factor          DIISBfac        ....   1.050
   Max. coefficient     DIISMaxC        ....  10.000
 MO-DIIS                CNVKDIIS        .... off
 Trust-Rad. Augm. Hess. CNVTRAH         .... auto
   Auto Start mean grad. ratio tolernc. ....  1.125000
   Auto Start start iteration           ....    50
   Auto Start num. interpolation iter.  ....    10
   Max. Number of Micro iterations      ....    24
   Max. Number of Macro iterations      .... Maxiter - #DIIS iter
   Number of Davidson start vectors     ....     2
   Converg. threshold    (grad. norm)   ....   1.000e-05
   Grad. Scal. Fac. for Micro threshold ....   0.100
   Minimum threshold for Micro iter.    ....   1.000e-02
   NR start threshold (gradient norm)   ....   1.000e-04
   Initial trust radius                 ....   0.400
   Minimum AH scaling param. (alpha)    ....   1.000
   Maximum AH scaling param. (alpha)    .... 1000.000
   Quad. conv. algorithm                .... NR
   White noise on init. David. guess    .... on
   Maximum white noise                  ....   0.010
   Pseudo random numbers                .... off
   Inactive MOs                         .... canonical
   Orbital update algorithm             .... Taylor
   Preconditioner                       .... Diag
   Full preconditioner red. dimension   ....   250
 SOSCF                  CNVSOSCF        .... on
   Start iteration      SOSCFMaxIt      ....   150
   Startup grad/error   SOSCFStart      ....  0.003300
   Hessian update       SOSCFHessUp     .... L-BFGS
 Level Shifting         CNVShift        .... on
   Level shift para.    LevelShift      ....    0.2500
   Turn off err/grad.   ShiftErr        ....    0.0010
 Zerner damping         CNVZerner       .... off
 Static damping         CNVDamp         .... on
   Fraction old density DampFac         ....    0.7000
   Max. Damping (<1)    DampMax         ....    0.9800
   Min. Damping (>=0)   DampMin         ....    0.0000
   Turn off err/grad.   DampErr         ....    0.1000

SCF Procedure:
 Maximum # iterations   MaxIter         ....   125
 SCF integral mode      SCFMode         .... Direct
   Integral package                     .... SHARK and LIBINT hybrid scheme
 Reset frequency        DirectResetFreq ....    20
 Integral Threshold     Thresh          ....  2.500e-11 Eh
 Primitive CutOff       TCut            ....  2.500e-12 Eh

Convergence Tolerance:
 Convergence Check Mode ConvCheckMode   .... Total+1el-Energy
 Convergence forced     ConvForced      .... 0
 Energy Change          TolE            ....  1.000e-08 Eh
 1-El. energy change                    ....  1.000e-05 Eh
 Orbital Gradient       TolG            ....  1.000e-05
 Orbital Rotation angle TolX            ....  1.000e-05
 DIIS Error             TolErr          ....  5.000e-07

------------------------------
INITIAL GUESS: MODEL POTENTIAL
------------------------------
Loading Hartree-Fock densities                     ... done
Calculating cut-offs                               ... done
Initializing the effective Hamiltonian             ... done
Setting up the integral package (SHARK)            ... done
Starting the Coulomb interaction                   ... done (   0.0 sec)
Making the grid                                    ... done (   0.1 sec)
Mapping shells                                     ... done
Starting the XC term evaluation                    ... done (   0.0 sec)
Transforming the Hamiltonian                       ... done (   0.0 sec)
Diagonalizing the Hamiltonian                      ... done (   0.0 sec)
Back transforming the eigenvectors                 ... done (   0.0 sec)
Now organizing SCF variables                       ... done
                      ------------------
                      INITIAL GUESS DONE (   0.1 sec)
                      ------------------
             **** ENERGY FILE WAS UPDATED (frag.en.tmp) ****
Finished Guess after   0.2 sec
Maximum memory used throughout the entire GUESS-calculation: 7.4 MB

-------------------------------------------------------------------------------------------
                                      ORCA LEAN-SCF
                              memory conserving SCF solver
-------------------------------------------------------------------------------------------

----------------------------------------D-I-I-S--------------------------------------------
Iteration    Energy (Eh)           Delta-E    RMSDP     MaxDP     DIISErr   Damp  Time(sec)
-------------------------------------------------------------------------------------------
               ***  Starting incremental Fock matrix formation  ***
    1    -303.5997755445756070     0.00e+00  6.13e-03  7.38e-02  3.32e-01  0.700   0.2
    2    -303.7531922050631579    -1.53e-01  4.17e-03  5.08e-02  2.03e-01  0.700   0.2
                               ***Turning on AO-DIIS***
    3    -303.8362282812163926    -8.30e-02  1.66e-03  2.20e-02  1.14e-01  0.700   0.2
    4    -303.8864620731686159    -5.02e-02  1.02e-03  1.42e-02  7.75e-02  0.700   0.2
    5    -303.9196797520431801    -3.32e-02  2.39e-03  3.35e-02  5.50e-02  0.000   0.2
                              *** Initializing SOSCF ***
---------------------------------------S-O-S-C-F--------------------------------------
Iteration    Energy (Eh)           Delta-E    RMSDP     MaxDP     MaxGrad    Time(sec)
--------------------------------------------------------------------------------------
    6    -303.9938044090380345    -7.41e-02  1.88e-04  2.04e-03  3.25e-03     0.2
               *** Restarting incremental Fock matrix formation ***
    7    -303.9938672383120206    -6.28e-05  1.14e-04  9.31e-04  5.47e-04     0.2
    8    -303.9938792775178058    -1.20e-05  8.04e-05  5.65e-04  2.58e-04     0.2
    9    -303.9938814542527439    -2.18e-06  1.19e-05  1.15e-04  1.00e-04     0.2
   10    -303.9938815806332855    -1.26e-07  1.57e-06  2.02e-05  9.49e-06     0.1
   11    -303.9938815831674788    -2.53e-09  7.17e-07  8.28e-06  3.47e-06     0.1
                 **** Energy Check signals convergence ****

               *****************************************************
               *                     SUCCESS                       *
               *           SCF CONVERGED AFTER  11 CYCLES          *
               *****************************************************

             **** ENERGY FILE WAS UPDATED (frag.en.tmp) ****

----------------
TOTAL SCF ENERGY
----------------

Total Energy       :       -303.99388158316748 Eh           -8272.09406 eV

Components:
Nuclear Repulsion  :        129.70254249967581 Eh            3529.38561 eV
Electronic Energy  :       -433.69642408284329 Eh          -11801.47967 eV
One Electron Energy:       -676.75917005018414 Eh          -18415.55325 eV
Two Electron Energy:        243.06274596734085 Eh            6614.07357 eV

Virial components:
Potential Energy   :       -609.52103044922410 Eh          -16585.91045 eV
Kinetic Energy     :        305.52714886605662 Eh            8313.81639 eV
Virial Ratio       :          1.99498156779658

---------------
SCF CONVERGENCE
---------------

  Last Energy change         ...    2.5342e-09  Tolerance :   1.0000e-08
  Last MAX-Density change    ...    8.2838e-06  Tolerance :   1.0000e-07
  Last RMS-Density change    ...    7.1715e-07  Tolerance :   5.0000e-09
  Last DIIS Error            ...    3.2510e-03  Tolerance :   5.0000e-07
  Last Orbital Gradient      ...    3.4651e-06  Tolerance :   1.0000e-05
  Last Orbital Rotation      ...    3.3746e-06  Tolerance :   1.0000e-05


----------------
ORBITAL ENERGIES
----------------

  NO   OCC          E(Eh)            E(eV) 
   0   2.0000     -20.583224      -560.0980 
   1   2.0000     -20.568708      -559.7030 
   2   2.0000     -20.526505      -558.5546 
   3   2.0000     -20.510900      -558.1300 
   4   2.0000      -1.436697       -39.0945 
   5   2.0000      -1.421161       -38.6718 
   6   2.0000      -1.380075       -37.5537 
   7   2.0000      -1.366690       -37.1895 
   8   2.0000      -0.797647       -21.7051 
   9   2.0000      -0.783573       -21.3221 
  10   2.0000      -0.744289       -20.2531 
  11   2.0000      -0.737802       -20.0766 
  12   2.0000      -0.641579       -17.4583 
  13   2.0000      -0.618385       -16.8271 
  14   2.0000      -0.580248       -15.7894 
  15   2.0000      -0.560638       -15.2557 
  16   2.0000      -0.549176       -14.9438 
  17   2.0000      -0.533867       -14.5273 
  18   2.0000      -0.494268       -13.4497 
  19   2.0000      -0.481407       -13.0997 
  20   0.0000       0.163767         4.4563 
  21   0.0000       0.241467         6.5706 
  22   0.0000       0.268636         7.3100 
  23   0.0000       0.282516         7.6876 
  24   0.0000       0.302532         8.2323 
  25   0.0000       0.323560         8.8045 
  26   0.0000       0.381614        10.3842 
  27   0.0000       0.468577        12.7506 
  28   0.0000       0.996068        27.1044 
  29   0.0000       1.020873        27.7794 
  30   0.0000       1.064485        28.9661 
*Only the first 10 virtual orbitals were printed.

                    ********************************
                    * MULLIKEN POPULATION ANALYSIS *
                    ********************************

-----------------------
MULLIKEN ATOMIC CHARGES
-----------------------
   0 O :   -0.910398
   1 H :    0.455231
   2 H :    0.472781
   3 O :   -0.946319
   4 H :    0.503115
   5 H :    0.431770
   6 O :   -0.909225
   7 H :    0.445586
   8 H :    0.449043
   9 O :   -0.890535
  10 H :    0.449543
  11 H :    0.449407
Sum of atomic charges:   -0.0000000

--------------------------------
MULLIKEN REDUCED ORBITAL CHARGES
--------------------------------
  0 O s       :     3.845278  s :     3.845278
      pz      :     1.902622  p :     5.033563
      px      :     1.498867
      py      :     1.632074
      dz2     :     0.004294  d :     0.031557
      dxz     :     0.002845
      dyz     :     0.003733
      dx2y2   :     0.012288
      dxy     :     0.008397

  1 H s       :     0.544769  s :     0.544769

  2 H s       :     0.527219  s :     0.527219

  3 O s       :     3.853703  s :     3.853703
      pz      :     1.915694  p :     5.059829
      px      :     1.421794
      py      :     1.722341
      dz2     :     0.003465  d :     0.032787
      dxz     :     0.006099
      dyz     :     0.005446
      dx2y2   :     0.009697
      dxy     :     0.008079

  4 H s       :     0.496885  s :     0.496885

  5 H s       :     0.568230  s :     0.568230

  6 O s       :     3.848178  s :     3.848178
      pz      :     1.458507  p :     5.028104
      px      :     1.737956
      py      :     1.831641
      dz2     :     0.015151  d :     0.032943
      dxz     :     0.004271
      dyz     :     0.001179
      dx2y2   :     0.002553
      dxy     :     0.009790

  7 H s       :     0.554414  s :     0.554414

  8 H s       :     0.550957  s :     0.550957

  9 O s       :     3.849671  s :     3.849671
      pz      :     1.716681  p :     5.007279
      px      :     1.707692
      py      :     1.582906
      dz2     :     0.004782  d :     0.033585
      dxz     :     0.009481
      dyz     :     0.002912
      dx2y2   :     0.001756
      dxy     :     0.014654

 10 H s       :     0.550457  s :     0.550457

 11 H s       :     0.550593  s :     0.550593



                     *******************************
                     * LOEWDIN POPULATION ANALYSIS *
                     *******************************

----------------------
LOEWDIN ATOMIC CHARGES
----------------------
   0 O :   -0.601530
   1 H :    0.318741
   2 H :    0.321961
   3 O :   -0.645279
   4 H :    0.299823
   5 H :    0.309687
   6 O :   -0.632660
   7 H :    0.303434
   8 H :    0.316952
   9 O :   -0.621341
  10 H :    0.316513
  11 H :    0.313697

-------------------------------
LOEWDIN REDUCED ORBITAL CHARGES
-------------------------------
  0 O s       :     3.541963  s :     3.541963
      pz      :     1.900768  p :     5.019878
      px      :     1.496010
      py      :     1.623100
      dz2     :     0.004910  d :     0.039689
      dxz     :     0.003809
      dyz     :     0.004349
      dx2y2   :     0.015797
      dxy     :     0.010824

  1 H s       :     0.681259  s :     0.681259

  2 H s       :     0.678039  s :     0.678039

  3 O s       :     3.544244  s :     3.544244
      pz      :     1.918914  p :     5.060523
      px      :     1.425371
      py      :     1.716239
      dz2     :     0.003982  d :     0.040512
      dxz     :     0.007740
      dyz     :     0.005670
      dx2y2   :     0.012783
      dxy     :     0.010337

  4 H s       :     0.700177  s :     0.700177

  5 H s       :     0.690313  s :     0.690313

  6 O s       :     3.550955  s :     3.550955
      pz      :     1.461044  p :     5.040427
      px      :     1.744822
      py      :     1.834562
      dz2     :     0.019868  d :     0.041278
      dxz     :     0.005382
      dyz     :     0.001625
      dx2y2   :     0.002640
      dxy     :     0.011762

  7 H s       :     0.696566  s :     0.696566

  8 H s       :     0.683048  s :     0.683048

  9 O s       :     3.555646  s :     3.555646
      pz      :     1.719348  p :     5.023463
      px      :     1.722569
      py      :     1.581546
      dz2     :     0.005738  d :     0.042233
      dxz     :     0.011470
      dyz     :     0.004456
      dx2y2   :     0.001819
      dxy     :     0.018750

 10 H s       :     0.683487  s :     0.683487

 11 H s       :     0.686303  s :     0.686303



                      *****************************
                      * MAYER POPULATION ANALYSIS *
                      *****************************

  NA   - Mulliken gross atomic population
  ZA   - Total nuclear charge
  QA   - Mulliken gross atomic charge
  VA   - Mayer's total valence
  BVA  - Mayer's bonded valence
  FA   - Mayer's free valence

  ATOM       NA         ZA         QA         VA         BVA        FA
  0 O      8.9104     8.0000    -0.9104     1.5734     1.5734     0.0000
  1 H      0.5448     1.0000     0.4552     0.7630     0.7630    -0.0000
  2 H      0.5272     1.0000     0.4728     0.7545     0.7545     0.0000
  3 O      8.9463     8.0000    -0.9463     1.5005     1.5005    -0.0000
  4 H      0.4969     1.0000     0.5031     0.7280     0.7280    -0.0000
  5 H      0.5682     1.0000     0.4318     0.7801     0.7801     0.0000
  6 O      8.9092     8.0000    -0.9092     1.5326     1.5326    -0.0000
  7 H      0.5544     1.0000     0.4456     0.7814     0.7814    -0.0000
  8 H      0.5510     1.0000     0.4490     0.7660     0.7660    -0.0000
  9 O      8.8905     8.0000    -0.8905     1.5632     1.5632    -0.0000
 10 H      0.5505     1.0000     0.4495     0.7634     0.7634    -0.0000
 11 H      0.5506     1.0000     0.4494     0.7651     0.7651    -0.0000

  Mayer bond orders larger than 0.100000
B(  0-O ,  1-H ) :   0.7639 B(  0-O ,  2-H ) :   0.7412 B(  3-O ,  4-H ) :   0.7030 
B(  3-O ,  5-H ) :   0.7885 B(  6-O ,  7-H ) :   0.7554 B(  6-O ,  8-H ) :   0.7743 
B(  9-O , 10-H ) :   0.7721 B(  9-O , 11-H ) :   0.7666 

-------
TIMINGS
-------

Total SCF time: 0 days 0 hours 0 min 2 sec 

Total time                  ....       2.011 sec
Sum of individual times     ....       1.931 sec  ( 96.0%)

SCF preparation             ....       0.058 sec  (  2.9%)
Fock matrix formation       ....       1.596 sec  ( 79.4%)
  Startup                   ....       0.038 sec  (  2.4% of F)
  Coulomb+Exchange Fock     ....       1.459 sec  ( 91.4% of F)
Diagonalization             ....       0.000 sec  (  0.0%)
Density matrix formation    ....       0.097 sec  (  4.8%)
Total Energy calculation    ....       0.020 sec  (  1.0%)
Population analysis         ....       0.022 sec  (  1.1%)
Orbital Transformation      ....       0.013 sec  (  0.7%)
Orbital Orthonormalization  ....       0.000 sec  (  0.0%)
DIIS solution               ....       0.070 sec  (  3.5%)
SOSCF solution              ....       0.054 sec  (  2.7%)
Finished LeanSCF after   2.0 sec

Maximum memory used throughout the entire LEANSCF-calculation: 8.3 MB

-------------------------   --------------------
FINAL SINGLE POINT ENERGY      -303.993881583167
-------------------------   --------------------

------------------------------------------------------------------------------
                         ORCA SCF GRADIENT CALCULATION
------------------------------------------------------------------------------

Nuc. rep. gradient        (SHARK) ... done (  0.0 sec)
HCore & Overlap gradient  (SHARK) ... done (  0.0 sec)
Two-electron gradient     (SHARK) ... done (  0.6 sec)

------------------
CARTESIAN GRADIENT
------------------

   1   O   :    0.048541482   -0.110775791    0.012753885
   2   H   :   -0.104994755    0.017509296   -0.041138442
   3   H   :    0.054426718    0.101340056    0.028030566
   4   O   :   -0.040395241   -0.104342637    0.068004489
   5   H   :   -0.063378700    0.088873840   -0.030640192
   6   H   :    0.105880332    0.010887585   -0.035302012
   7   O   :   -0.090494053    0.059234785    0.067666894
   8   H   :    0.009725155    0.005739270   -0.112940304
   9   H   :    0.080865720   -0.066828859    0.043461884
  10   O   :    0.117328837    0.014002659    0.039124482
  11   H   :   -0.048799947    0.066999998   -0.078811924
  12   H   :   -0.068705547   -0.082640201    0.039790673

Difference to translation invariance:
           :   -0.0000000000   -0.0000000001   -0.0000000000

Difference to rotation invariance:
           :   -0.0000006104   -0.0000001173    0.0000000368

Norm of the Cartesian gradient     ...    0.4100806078
RMS gradient                       ...    0.0683467680
MAX gradient                       ...    0.1173288371

-------
TIMINGS
-------

Total SCF gradient time     ....        0.621 sec

Densities                   ....       0.000 sec  (  0.0%)
One electron gradient       ....       0.037 sec  (  5.9%)
Two electron gradient       ....       0.584 sec  ( 94.0%)

Maximum memory used throughout the entire SCFGRAD-calculation: 14.2 MB

------------------------------------------------------------------------------
                              ORCA PROPERTY CALCULATIONS
------------------------------------------------------------------------------

GBWName                                 ... frag.gbw
Number of atoms                         ...     12
Number of basis functions               ...     72
Max core memory                         ...   1024 MB

Electric properties:
Dipole moment                           ... YES
Quadrupole moment                       ...  NO
Static polarizability (Dipole/Dipole)   ...  NO
Static polarizability (Dipole/Quad.)    ...  NO
Static polarizability (Quad./Quad.)     ...  NO
Static polarizability (Velocity)        ...  NO

Atomic electric properties:
Dipole moment                           ...  NO
Quadrupole moment                       ...  NO
Static polarizability                   ...  NO

Choice of electric origin               ... Center of mass
Position of electric origin             ...    40.500284    88.958068    74.798573

General magnetic properties:
Magnetizability                         ...  NO

EPR properties:
g-Tensor (aka g-matrix)                 ...  NO
Zero-Field splitting spin-orbit         ...  NO
Zero-field splitting spin-spin          ...  NO
Hyperfine couplings                     ...  NO (   0 nuclei)
Quadrupole couplings                    ...  NO (   0 nuclei)
Contact density                         ...  NO (   0 nuclei)

NMR properties:
Chemical shifts                         ...  NO (   0 nuclei)
Spin-rotation constants                 ...  NO (   0 nuclei)
Spin-spin couplings                     ...  NO (   0 nuclei,    0 pairs)

Choice of magnetic origin               ... GIAO
Position of magnetic origin             ...     0.000000     0.000000     0.000000

Properties with geometric perturbations:
SCF Hessian                             ...  NO
IR spectrum                             ...  NO
VCD spectrum                            ...  NO
X-ray spectroscopy properties:
SCF XES/XAS/RIXS spectra                ...  NO


-------------
DIPOLE MOMENT
-------------

Method             : SCF
Type of density    : Electron Density
Multiplicity       :   1
Irrep              :   0
Energy             :  -303.9938815831674788 Eh
Relativity type    : 
Basis              : AO
                                X                 Y                 Z
Electronic contribution:      0.049370102      -0.141132875       0.012357996
Nuclear contribution   :      0.248426356      -0.982743233       1.338835437
                        -----------------------------------------
Total Dipole Moment    :      0.297796458      -1.123876108       1.351193433
                        -----------------------------------------
Magnitude (a.u.)       :      1.782555449
Magnitude (Debye)      :      4.530895876



--------------------
Rotational spectrum 
--------------------
 
Rotational constants in cm-1:             0.140923             0.057528             0.041436 
Rotational constants in MHz :          4224.755872          1724.651323          1242.224486 

Dipole components along the rotational axes: 
x,y,z [a.u.] :     1.120857    -1.382659     0.097154 
x,y,z [Debye]:     2.848992    -3.514439     0.246945 

 

Dipole moment calculation done in   0.0 sec 

Maximum memory used throughout the entire PROP-calculation: 2.8 MB

--------------------------------
SUGGESTED CITATIONS FOR THIS RUN
--------------------------------

Below you find a list of papers that are relevant to this ORCA run
We neither can nor want to force you to cite these papers, but we appreciate if you do
You receive ORCA, which is the product of decades of hard work by many enthusiastic individuals, for free
The only thing we kindly ask in return is that you cite our papers,
We deeply appreciate it, if you show your appreciation for ORCA by not just citing the generic ORCA reference.

Please note that relegating all ORCA citations to the supporting information does *not* help us.
SI sections are not indexed - citations you put there will not count into any citation statistics
But we need these citations in order to attract the funding resources that allow us to do what we are doing

Therefore, if you are a happy ORCA user, please consider citing a few of the papers listed below in the main body of your paper

In addition to the list printed below, the program has created the file frag.bibtex that contains the list in bibtex format
You can import this file easily into all common literature databanks and citation aid programs


List of essential papers. We consider these as the minimum necessary citations

  1. Neese,F.
     Software update: the ORCA program system, version 5.0
     WIRES Comput. Molec. Sci., 2022 12(1)e1606
     doi.org/10.1002/wcms.1606

List of papers to cite with high priority. The work reported in these papers was absolutely
necessary for this run to complete.
Our perspective: the developers of density functionals and basis sets usually get cited in chemistry papers
Good! But without the algorithms to do something with them, the functionals or basis sets would not do anything.
Hence, in our opinion, the algorithm design and method developments papers are equally worthy of getting cited

  1. Neese,F.
     The SHARK Integral Generation and Digestion System
     J. Comp. Chem., 2022  1-16
     doi.org/10.1002/jcc.26942

List of suggested additional citations. These are papers that are important in the 'surrounding' of 
of this run, or papers that preceded the highly important papers. If you like your results we are grateful for a citation.

  1. Neese,F.
     The ORCA program system
     WIRES Comput. Molec. Sci., 2012 2(1)73-78
     doi.org/10.1002/wcms.81
  2. Neese,F.
     Software update: the ORCA program system, version 4.0
     WIRES Comput. Molec. Sci., 2018 8(1)1-6
     doi.org/10.1002/wcms.1327
  3. Neese,F.; Wennmohs,F.; Becker,U.; Riplinger,C.
     The ORCA quantum chemistry program package
     J. Chem. Phys., 2020 152 Art. No. L224108
     doi.org/10.1063/5.0004608

List of optional additional citations

  1. Neese,F.
     Approximate second-order SCF convergence for spin unrestricted wavefunctions
     Chem. Phys. Lett., 2000 325(1-3)93-98
     doi.org/10.1016/s0009-2614(00)00662-x

Timings for individual modules:

Sum of individual times          ...        3.533 sec (=   0.059 min)
Startup calculation              ...        0.509 sec (=   0.008 min)  14.4 %
SCF iterations                   ...        2.283 sec (=   0.038 min)  64.6 %
Property calculations            ...        0.051 sec (=   0.001 min)   1.4 %
SCF Gradient evaluation          ...        0.689 sec (=   0.011 min)  19.5 %
                             ****ORCA TERMINATED NORMALLY****
TOTAL RUN TIME: 0 days 0 hours 0 minutes 3 seconds 763 msec
