
                                 *****************
                                 * O   R   C   A *
                                 *****************

                                            #,                                       
                                            ###                                      
                                            ####                                     
                                            #####                                    
                                            ######                                   
                                           ########,                                 
                                     ,,################,,,,,                         
                               ,,#################################,,                 
                          ,,##########################################,,             
                       ,#########################################, ''#####,          
                    ,#############################################,,   '####,        
                  ,##################################################,,,,####,       
                ,###########''''           ''''###############################       
              ,#####''   ,,,,##########,,,,          '''####'''          '####       
            ,##' ,,,,###########################,,,                        '##       
           ' ,,###''''                  '''############,,,                           
         ,,##''                                '''############,,,,        ,,,,,,###''
      ,#''                                            '''#######################'''  
     '                                                          ''''####''''         
             ,#######,   #######,   ,#######,      ##                                
            ,#'     '#,  ##    ##  ,#'     '#,    #''#        ,####,   ,####,        
            ##       ##  ##   ,#'  ##            #'  '#       #'       #'  '#        
            ##       ##  #######   ##           ,######,      #####,   #    #        
            '#,     ,#'  ##    ##  '#,     ,#' ,#      #,     #,   #   #,  ,#        
             '#######'   ##     ##  '#######'  #'      '#     '####' # '####'        



                #########################################################
                #                        -***-                          #
                #          Department of theory and spectroscopy        #
                #                                                       #
                #                      Frank Neese                      #
                #                                                       #
                #     Directorship, Architecture, Infrastructure        #
                #                    SHARK, DRIVERS                     #
                #        Core code/Algorithms in most modules           #
                #                                                       #
                #        Max Planck Institute fuer Kohlenforschung      #
                #                Kaiser Wilhelm Platz 1                 #
                #                 D-45470 Muelheim/Ruhr                 #
                #                      Germany                          #
                #                                                       #
                #                  All rights reserved                  #
                #                        -***-                          #
                #########################################################


                         Program Version 6.0.1  -  RELEASE   -


 With contributions from (in alphabetic order):
[Max-Planck-Institut fuer Kohlenforschung]                               
  Daniel Aravena         : Magnetic Suceptibility                        
  Michael Atanasov       : Ab Initio Ligand Field Theory (pilot matlab implementation)
  Alexander A. Auer      : GIAO ZORA, VPT2 properties, NMR spectrum      
  Ute Becker             : All parallelization in ORCA, NUMFREQ, NUMCALC 
  Giovanni Bistoni       : ED, misc. LED, open-shell LED, HFLD           
  Martin Brehm           : Molecular dynamics                            
  Dmytro Bykov           : pre 5.0 version of the SCF Hessian            
  Marcos Casanova-Páez   : Triplet and SCS-CIS(D). UHF-(DLPNO)-IP/EA/STEOM-CCSD. UHF-CVS-IP/STEOM-CCSD   
  Vijay G. Chilkuri      : MRCI spin determinant printing, contributions to CSF-ICE 
  Pauline Colinet        : FMM embedding                                 
  Dipayan Datta          : RHF DLPNO-CCSD density                        
  Achintya Kumar Dutta   : EOM-CC, STEOM-CC                              
  Nicolas Foglia         : Exact transition moments, OPA infrastructure, MCD improvements    
  Dmitry Ganyushin       : Spin-Orbit,Spin-Spin,Magnetic field MRCI      
  Miquel Garcia-Rates    : C-PCM and meta-GGA Hessian, CCSD/C-PCM, Gaussian charge scheme 
  Tiago L. C. Gouveia    : GS-ROHF, GS-ROCIS                             
  Yang Guo               : DLPNO-NEVPT2, F12-NEVPT2, CIM, IAO-localization        
  Andreas Hansen         : Spin unrestricted coupled pair/coupled cluster methods 
  Ingolf Harden          : AUTO-CI MPn and infrastructure                
  Benjamin Helmich-Paris : MC-RPA, TRAH-(SCF,CASSCF), AVAS, COSX integrals, SCF dyn. polar. 
  Lee Huntington         : MR-EOM, pCC                                   
  Robert Izsak           : Overlap fitted RIJCOSX, COSX-SCS-MP3, EOM     
  Riya Kayal             : Wick's Theorem for AUTO-CI, AUTO-CI UHF-CCSDT 
  Emily Kempfer          : AUTO-CI, RHF CISDT and CCSDT                  
  Christian Kollmar      : KDIIS, OOCD, Brueckner-CCSD(T), CCSD density, CASPT2, CASPT2-K, improved NEVPT2 
  Axel Koslowski         : Symmetry handling                             
  Simone Kossmann        : meta-GGA functionals, TD-DFT gradient, OOMP2, (MP2 Hessian; deprecated post 5.0) 
  Lucas Lang             : DCDCAS                                        
  Marvin Lechner         : AUTO-CI (C++ implementation), FIC-MRCC        
  Spencer Leger          : CASSCF response                               
  Dagmar Lenk            : GEPOL surface, SMD, ORCA-2-JSON               
  Dimitrios Liakos       : Extrapolation schemes; Compound Job, initial MDCI parallelization 
  Dimitrios Manganas     : Further ROCIS development; embedding schemes. LFT, Crystal Embedding 
  Dimitrios Pantazis     : SARC Basis sets                               
  Anastasios Papadopoulos: AUTO-CI, single reference methods and gradients 
  Taras Petrenko         : pre 6.0 DFT Hessian and TD-DFT gradient, (ASA, deprecated), ECA, 1-Electron XAS/XES, NRVS 
  Peter Pinski           : DLPNO-MP2, DLPNO-MP2 Gradient                 
  Christoph Reimann      : Effective Core Potentials                     
  Marius Retegan         : Local ZFS, SOC                                
  Christoph Riplinger    : Optimizer, TS searches, QM/MM, DLPNO-CCSD(T), (RO)-DLPNO pert. Triples 
  Michael Roemelt        : Original ROCIS implementation                 
  Masaaki Saitow         : Open-shell DLPNO-CCSD energy and density      
  Barbara Sandhoefer     : DKH picture change effects                    
  Kantharuban Sivalingam : CASSCF convergence/infrastructure, NEVPT2 and variants, FIC-MRCI 
  Bernardo de Souza      : ESD, SOC TD-DFT                               
  Georgi L. Stoychev     : AutoAux, RI-MP2 NMR, DLPNO-MP2 response, X2C  
  Van Anh Tran           : RI-MP2 g-tensors                              
  Willem Van den Heuvel  : Paramagnetic NMR                              
  Zikuan Wang            : NOTCH, Electric field optimization            
  Frank Wennmohs         : Technical directorship and infrastructure     
  Hang Xu                : AUTO-CI-Response properties                   
                                                                         
[FACCTs GmbH]                                                            
  Markus Bursch, Miquel Garcia-Rates, Christoph Riplinger, Bernardo de Souza, Georgi L. Stoychev 
                                                                 
  APM, Basis sets (HGBS, AHGBS, def-TZVP (Ac-Lr), def2-XVPD (La-Lu)), CI-OPT, improved COSX, DLPNO-Multilevel,           
  DOCKER, DRACO, updates on ESD, GOAT, IRC, LR-CPCM, MBIS, meta-GGA TD-DFT gradient, ML-optimized integration grids, 
  MM, NACMEs, nearIR, NEB, NEB-TS, NL-DFT gradient (VV10), 2- and 3-layer-ONIOM, interface openCOSMO-RS, QMMM,   
  Crystal-QMMM, SF, symmetry and pop. for TD-DFT, r2SCAN hybrids, SOLVATOR                                   
                                                                         
[Other institutions]                                                     
  V. Asgeirsson          : NEB                                           
  Christoph Bannwarth    : sTDA-DFT, sTD-DFT, PBEh-3c, B97-3c, D3        
  Sebastian Ehlert       : rSCAN, r2SCAN, r2SCAN-3c, D4, dhf basis sets  
  Marvin Friede          : D4 for Fr, Ra, Ac-Lr                          
  Lars Goerigk           : TD-DFT with DH, B97 family of functionals     
  Stefan Grimme          : VdW corrections, initial TS optimization, DFT functionals, gCP, sTDA/sTD-DF 
  Waldemar Hujo          : DFT-NL                                        
  H. Jonsson             : NEB                                           
  Holger Kruse           : gCP                                           
  Marcel Mueller         : wB97X-3c, vDZP basis set                      
  Hagen Neugebauer       : wr2SCAN                                       
  Tobias Risthaus        : range-separated hybrid DFT                    
  Lukas Wittmann         : regularized MP2, r2SCAN double-hybrids, wr2SCAN        
                                                                         
We gratefully acknowledge several colleagues who have allowed us to      
interface, adapt or use parts of their codes:                            
  Ed Valeev, F. Pavosevic, A. Kumar             : LibInt (2-el integral package), F12 methods 
  Garnet Chan, S. Sharma, J. Yang, R. Olivares  : DMRG                   
  Ulf Ekstrom                                   : XCFun DFT Library      
  Mihaly Kallay                                 : mrcc  (arbitrary order and MRCC methods)
  Frank Weinhold                                : gennbo (NPA and NBO analysis)           
  Simon Mueller                                 : openCOSMO-RS                            
  Christopher J. Cramer and Donald G. Truhlar   : smd solvation model                     
  S Lehtola, MJT Oliveira, MAL Marques          : LibXC Library                           
  Liviu Ungur et al                             : ANISO software                          


 Your calculation uses the libint2 library for the computation of 2-el integrals
 For citations please refer to: http://libint.valeyev.net

 Your ORCA version has been built with support for libXC version: 6.2.2
 For citations please refer to: https://libxc.gitlab.io

 This ORCA versions uses:
   CBLAS   interface :  Fast vector & matrix operations
   LAPACKE interface :  Fast linear algebra routines
   SCALAPACK package :  Parallel linear algebra routines
   Shared memory     :  Shared parallel matrices
   BLAS/LAPACK       :  OpenBLAS 0.3.27  USE64BITINT DYNAMIC_ARCH NO_AFFINITY SkylakeX SINGLE_THREADED
        Core in use  :  SkylakeX
   Copyright (c) 2011-2014, The OpenBLAS Project


================================================================================

----- Orbital basis set information -----
Your calculation utilizes the basis: 6-31G*
   H-He, Li-Ne : W. J. Hehre, R. Ditchfield and J.A. Pople, J. Chem. Phys. 56, 2257 (1972).
                 Note: He and Ne are unpublished basis sets taken from the Gaussian program.
                 Note: Li and B from J. D. Dill and J. A. Pople, J. Chem. Phys. 62, 2921 (1975).
   Na - Ar     : M. M. Francl, W. J. Pietro, W. J. Hehre, J. S. Binkley, M. S. Gordon, 
                 D. J. DeFrees and J. A. Pople, J. Chem. Phys. 77, 3654 (1982).
   K - Zn      : V. A. Rassolov, J. A. Pople, M. A. Ratner, and T. L. Windus, J. Chem. Phys. 109, 1223 (1998).

================================================================================
                                        WARNINGS
                       Please study these warnings very carefully!
================================================================================


================================================================================
                                       INPUT FILE
================================================================================
NAME = frag.inp
|  1> !HF 6-31G* EnGrad
|  2> %pal nprocs 1 end
|  3> *xyz -1 1
|  4> O 20.35232000 49.63574000 40.01023000
|  5> H 19.54326000 49.49202000 40.30334000
|  6> H 20.79050000 48.92392000 40.26012000
|  7> O 21.78987000 47.25010000 37.48256000
|  8> H 21.14108000 47.76263000 37.20411000
|  9> H 21.67133000 47.22017000 38.34638000
| 10> O 21.99613000 48.36911000 43.54199000
| 11> H 21.97702000 49.24128000 43.53308000
| 12> *
| 13> 
| 14>                          ****END OF INPUT****
================================================================================

                     *******************************
                     * Energy+Gradient Calculation *
                     *******************************

---------------------------------
CARTESIAN COORDINATES (ANGSTROEM)
---------------------------------
  O     20.352320   49.635740   40.010230
  H     19.543260   49.492020   40.303340
  H     20.790500   48.923920   40.260120
  O     21.789870   47.250100   37.482560
  H     21.141080   47.762630   37.204110
  H     21.671330   47.220170   38.346380
  O     21.996130   48.369110   43.541990
  H     21.977020   49.241280   43.533080

----------------------------
CARTESIAN COORDINATES (A.U.)
----------------------------
  NO LB      ZA    FRAG     MASS         X           Y           Z
   0 O     8.0000    0    15.999   38.460311   93.797955   75.608377
   1 H     1.0000    0     1.008   36.931409   93.526364   76.162275
   2 H     1.0000    0     1.008   39.288351   92.452810   76.080601
   3 O     8.0000    0    15.999   41.176887   89.289749   70.831773
   4 H     1.0000    0     1.008   39.950851   90.258290   70.305579
   5 H     1.0000    0     1.008   40.952879   89.233189   72.464156
   6 O     8.0000    0    15.999   41.566662   91.404371   82.282436
   7 H     1.0000    0     1.008   41.530549   93.052534   82.265599

--------------------------------
INTERNAL COORDINATES (ANGSTROEM)
--------------------------------
 O      0   0   0     0.000000000000     0.00000000     0.00000000
 H      1   0   0     0.872437386922     0.00000000     0.00000000
 H      1   2   0     0.872430190273   103.59919813     0.00000000
 O      3   1   2     3.393413229022   108.41619438   115.19435551
 H      4   3   1     0.872439033687    75.66802933   340.40737457
 H      4   3   1     0.872429096775    33.53678511   194.84682685
 O      3   1   2     3.540060526305   124.36490474   281.07896779
 H      7   3   1     0.872424832923    80.00248129   334.15276262

---------------------------
INTERNAL COORDINATES (A.U.)
---------------------------
 O      0   0   0     0.000000000000     0.00000000     0.00000000
 H      1   0   0     1.648667730277     0.00000000     0.00000000
 H      1   2   0     1.648654130581   103.59919813     0.00000000
 O      3   1   2     6.412621662077   108.41619438   115.19435551
 H      4   3   1     1.648670842211    75.66802933   340.40737457
 H      4   3   1     1.648652064169    33.53678511   194.84682685
 O      3   1   2     6.689744892221   124.36490474   281.07896779
 H      7   3   1     1.648644006656    80.00248129   334.15276262

---------------------
BASIS SET INFORMATION
---------------------
There are 2 groups of distinct atoms

 Group   1 Type O   : 10s4p1d contracted to 3s2p1d pattern {631/31/1}
 Group   2 Type H   : 4s contracted to 2s pattern {31}

Atom   0O    basis set group =>   1
Atom   1H    basis set group =>   2
Atom   2H    basis set group =>   2
Atom   3O    basis set group =>   1
Atom   4H    basis set group =>   2
Atom   5H    basis set group =>   2
Atom   6O    basis set group =>   1
Atom   7H    basis set group =>   2
------------------------------------------------------------------------------
                             ORCA STARTUP CALCULATIONS
------------------------------------------------------------------------------
------------------------------------------------------------------------------
                   ___                                                        
                  /   \      - P O W E R E D   B Y -                         
                 /     \                                                     
                 |  |  |   _    _      __       _____    __    __             
                 |  |  |  | |  | |    /  \     |  _  \  |  |  /  |          
                  \  \/   | |  | |   /    \    | | | |  |  | /  /          
                 / \  \   | |__| |  /  /\  \   | |_| |  |  |/  /          
                |  |  |   |  __  | /  /__\  \  |    /   |      \           
                |  |  |   | |  | | |   __   |  |    \   |  |\   \          
                \     /   | |  | | |  |  |  |  | |\  \  |  | \   \       
                 \___/    |_|  |_| |__|  |__|  |_| \__\ |__|  \__/        
                                                                              
                      - O R C A' S   B I G   F R I E N D -                    
                                      &                                       
                       - I N T E G R A L  F E E D E R -                       
                                                                              
 v1 FN, 2020, v2 2021, v3 2022-2024                                           
------------------------------------------------------------------------------


----------------------
SHARK INTEGRAL PACKAGE
----------------------

Number of atoms                             ...      8
Number of basis functions                   ...     52
Number of shells                            ...     28
Maximum angular momentum                    ...      2
Integral batch strategy                     ... SHARK/LIBINT Hybrid
RI-J (if used) integral strategy            ... SPLIT-RIJ (Revised 2003 algorithm where possible)
Printlevel                                  ...      1
Contraction scheme used                     ... SEGMENTED contraction
Prescreening option                         ... SCHWARTZ
   Thresh                                   ... 2.500e-11
   Tcut                                     ... 2.500e-12
   Tpresel                                  ... 2.500e-12 
Coulomb Range Separation                    ... NOT USED
Exchange Range Separation                   ... NOT USED
Multipole approximations                    ... NOT USED
Finite Nucleus Model                        ... NOT USED
CABS basis                                  ... NOT available
Auxiliary Coulomb fitting basis             ... NOT available
Auxiliary J/K fitting basis                 ... NOT available
Auxiliary Correlation fitting basis         ... NOT available
Auxiliary 'external' fitting basis          ... NOT available

Checking pre-screening integrals            ... done (  0.0 sec) Dimension = 28
Check shell pair data                       ... done (  0.0 sec)
Shell pair information
Shell pair cut-off parameter TPreSel        ...   2.5e-12
Total number of shell pairs                 ...       406
Shell pairs after pre-screening             ...       342
Total number of primitive shell pairs       ...      2223
Primitive shell pairs kept                  ...      1263
          la=0 lb=0:    161 shell pairs
          la=1 lb=0:     95 shell pairs
          la=1 lb=1:     19 shell pairs
          la=2 lb=0:     46 shell pairs
          la=2 lb=1:     16 shell pairs
          la=2 lb=2:      5 shell pairs

Calculating one electron integrals          ... done (  0.0 sec)
Calculating Nuclear repulsion               ... done (  0.0 sec) ENN=     59.079015255741 Eh

Diagonalization of the overlap matrix:
Smallest eigenvalue                        ... 4.482e-02
Time for diagonalization                   ...    0.000 sec
Threshold for overlap eigenvalues          ... 1.000e-07
Number of eigenvalues below threshold      ... 0
Time for construction of square roots      ...    0.004 sec
Total time needed                          ...    0.007 sec

-------------------
DFT GRID GENERATION
-------------------

General Integration Accuracy     IntAcc      ... 4.388
Radial Grid Type                 RadialGrid  ... OptM3 with GC (2021)
Angular Grid (max. ang.)         AngularGrid ... 4 (Lebedev-302)
Angular grid pruning method      GridPruning ... 4 (adaptive)
Weight generation scheme         WeightScheme... mBecke (2022)
Basis function cutoff            BFCut       ... 1.0000e-11
Integration weight cutoff        WCut        ... 1.0000e-14
Partially contracted basis set               ... off
Rotationally invariant grid construction     ... off
Angular grids for H and He will be reduced by one unit

Total number of grid points                  ...    34913
Total number of batches                      ...      550
Average number of points per batch           ...       63
Average number of grid points per atom       ...     4364
Initializing property integral containers    ... done (  0.0 sec)

SHARK setup successfully completed in   0.4 seconds

Maximum memory used throughout the entire STARTUP-calculation: 12.3 MB
-------------------------------------------------------------------------------
                                 ORCA GUESS
                   Start orbitals & Density for SCF / CASSCF
-------------------------------------------------------------------------------

------------
SCF SETTINGS
------------
Hamiltonian:
 Ab initio Hamiltonian  Method          .... Hartree-Fock(GTOs)


General Settings:
 Integral files         IntName         .... frag
 Hartree-Fock type      HFTyp           .... RHF
 Total Charge           Charge          ....   -1
 Multiplicity           Mult            ....    1
 Number of Electrons    NEL             ....   30
 Basis Dimension        Dim             ....   52
 Nuclear Repulsion      ENuc            ....     59.0790152557 Eh

Convergence Acceleration:
 AO-DIIS                CNVDIIS         .... on
   Start iteration      DIISMaxIt       ....    12
   Startup error        DIISStart       ....  0.200000
   # of expansion vecs  DIISMaxEq       ....     5
   Bias factor          DIISBfac        ....   1.050
   Max. coefficient     DIISMaxC        ....  10.000
 MO-DIIS                CNVKDIIS        .... off
 Trust-Rad. Augm. Hess. CNVTRAH         .... auto
   Auto Start mean grad. ratio tolernc. ....  1.125000
   Auto Start start iteration           ....    50
   Auto Start num. interpolation iter.  ....    10
   Max. Number of Micro iterations      ....    24
   Max. Number of Macro iterations      .... Maxiter - #DIIS iter
   Number of Davidson start vectors     ....     2
   Converg. threshold    (grad. norm)   ....   1.000e-05
   Grad. Scal. Fac. for Micro threshold ....   0.100
   Minimum threshold for Micro iter.    ....   1.000e-02
   NR start threshold (gradient norm)   ....   1.000e-04
   Initial trust radius                 ....   0.400
   Minimum AH scaling param. (alpha)    ....   1.000
   Maximum AH scaling param. (alpha)    .... 1000.000
   Quad. conv. algorithm                .... NR
   White noise on init. David. guess    .... on
   Maximum white noise                  ....   0.010
   Pseudo random numbers                .... off
   Inactive MOs                         .... canonical
   Orbital update algorithm             .... Taylor
   Preconditioner                       .... Diag
   Full preconditioner red. dimension   ....   250
 SOSCF                  CNVSOSCF        .... on
   Start iteration      SOSCFMaxIt      ....   150
   Startup grad/error   SOSCFStart      ....  0.003300
   Hessian update       SOSCFHessUp     .... L-BFGS
 Level Shifting         CNVShift        .... on
   Level shift para.    LevelShift      ....    0.2500
   Turn off err/grad.   ShiftErr        ....    0.0010
 Zerner damping         CNVZerner       .... off
 Static damping         CNVDamp         .... on
   Fraction old density DampFac         ....    0.7000
   Max. Damping (<1)    DampMax         ....    0.9800
   Min. Damping (>=0)   DampMin         ....    0.0000
   Turn off err/grad.   DampErr         ....    0.1000

SCF Procedure:
 Maximum # iterations   MaxIter         ....   125
 SCF integral mode      SCFMode         .... Direct
   Integral package                     .... SHARK and LIBINT hybrid scheme
 Reset frequency        DirectResetFreq ....    20
 Integral Threshold     Thresh          ....  2.500e-11 Eh
 Primitive CutOff       TCut            ....  2.500e-12 Eh

Convergence Tolerance:
 Convergence Check Mode ConvCheckMode   .... Total+1el-Energy
 Convergence forced     ConvForced      .... 0
 Energy Change          TolE            ....  1.000e-08 Eh
 1-El. energy change                    ....  1.000e-05 Eh
 Orbital Gradient       TolG            ....  1.000e-05
 Orbital Rotation angle TolX            ....  1.000e-05
 DIIS Error             TolErr          ....  5.000e-07

------------------------------
INITIAL GUESS: MODEL POTENTIAL
------------------------------
Loading Hartree-Fock densities                     ... done
Calculating cut-offs                               ... done
Initializing the effective Hamiltonian             ... done
Setting up the integral package (SHARK)            ... done
Starting the Coulomb interaction                   ... done (   0.0 sec)
Making the grid                                    ... done (   0.1 sec)
Mapping shells                                     ... done
Starting the XC term evaluation                    ... done (   0.0 sec)
Transforming the Hamiltonian                       ... done (   0.0 sec)
Diagonalizing the Hamiltonian                      ... done (   0.0 sec)
Back transforming the eigenvectors                 ... done (   0.0 sec)
Now organizing SCF variables                       ... done
                      ------------------
                      INITIAL GUESS DONE (   0.1 sec)
                      ------------------
             **** ENERGY FILE WAS UPDATED (frag.en.tmp) ****
Finished Guess after   0.2 sec
Maximum memory used throughout the entire GUESS-calculation: 5.4 MB

-------------------------------------------------------------------------------------------
                                      ORCA LEAN-SCF
                              memory conserving SCF solver
-------------------------------------------------------------------------------------------

----------------------------------------D-I-I-S--------------------------------------------
Iteration    Energy (Eh)           Delta-E    RMSDP     MaxDP     DIISErr   Damp  Time(sec)
-------------------------------------------------------------------------------------------
               ***  Starting incremental Fock matrix formation  ***
    1    -226.8950387250976632     0.00e+00  9.55e-03  1.09e-01  4.79e-01  0.700   0.1
    2    -227.0618646687334490    -1.67e-01  6.58e-03  7.47e-02  2.88e-01  0.700   0.1
                               ***Turning on AO-DIIS***
    3    -227.1508833007719090    -8.90e-02  2.58e-03  2.99e-02  1.58e-01  0.700   0.1
    4    -227.2043811117184191    -5.35e-02  1.55e-03  1.92e-02  1.07e-01  0.700   0.1
    5    -227.2396674125774325    -3.53e-02  1.07e-03  1.38e-02  7.68e-02  0.700   0.1
    6    -227.2637526184939816    -2.41e-02  2.61e-03  3.45e-02  5.55e-02  0.000   0.1
    7    -227.3183325644007482    -5.46e-02  2.03e-04  2.67e-03  3.64e-03  0.000   0.1
                              *** Initializing SOSCF ***
---------------------------------------S-O-S-C-F--------------------------------------
Iteration    Energy (Eh)           Delta-E    RMSDP     MaxDP     MaxGrad    Time(sec)
--------------------------------------------------------------------------------------
    8    -227.3183613663703113    -2.88e-05  1.55e-04  2.11e-03  1.81e-03     0.1
               *** Restarting incremental Fock matrix formation ***
    9    -227.3183698677690359    -8.50e-06  7.00e-05  1.02e-03  4.10e-04     0.1
   10    -227.3183709265925359    -1.06e-06  4.95e-05  6.74e-04  1.54e-04     0.1
   11    -227.3183711669328773    -2.40e-07  4.90e-06  5.05e-05  4.72e-05     0.1
   12    -227.3183711769630122    -1.00e-08  1.86e-06  2.83e-05  1.13e-05     0.1
   13    -227.3183711779903433    -1.03e-09  6.45e-07  1.04e-05  2.95e-06     0.1
                 **** Energy Check signals convergence ****

               *****************************************************
               *                     SUCCESS                       *
               *           SCF CONVERGED AFTER  13 CYCLES          *
               *****************************************************

             **** ENERGY FILE WAS UPDATED (frag.en.tmp) ****

----------------
TOTAL SCF ENERGY
----------------

Total Energy       :       -227.31837117799034 Eh           -6185.64735 eV

Components:
Nuclear Repulsion  :         59.07901525574086 Eh            1607.62174 eV
Electronic Energy  :       -286.39738643373119 Eh           -7793.26909 eV
One Electron Energy:       -437.28345957921687 Eh          -11899.08787 eV
Two Electron Energy:        150.88607314548568 Eh            4105.81879 eV

Virial components:
Potential Energy   :       -455.74783035305302 Eh          -12401.52895 eV
Kinetic Energy     :        228.42945917506265 Eh            6215.88159 eV
Virial Ratio       :          1.99513596888473

---------------
SCF CONVERGENCE
---------------

  Last Energy change         ...    1.0273e-09  Tolerance :   1.0000e-08
  Last MAX-Density change    ...    1.0444e-05  Tolerance :   1.0000e-07
  Last RMS-Density change    ...    6.4490e-07  Tolerance :   5.0000e-09
  Last DIIS Error            ...    1.8125e-03  Tolerance :   5.0000e-07
  Last Orbital Gradient      ...    2.9501e-06  Tolerance :   1.0000e-05
  Last Orbital Rotation      ...    6.0576e-06  Tolerance :   1.0000e-05


----------------
ORBITAL ENERGIES
----------------

  NO   OCC          E(Eh)            E(eV) 
   0   2.0000     -20.447966      -556.4174 
   1   2.0000     -20.422548      -555.7258 
   2   2.0000     -20.078615      -546.3669 
   3   2.0000      -1.301117       -35.4052 
   4   2.0000      -1.275069       -34.6964 
   5   2.0000      -0.859933       -23.4000 
   6   2.0000      -0.664089       -18.0708 
   7   2.0000      -0.638227       -17.3670 
   8   2.0000      -0.500276       -13.6132 
   9   2.0000      -0.475567       -12.9408 
  10   2.0000      -0.415608       -11.3093 
  11   2.0000      -0.389773       -10.6063 
  12   2.0000      -0.199551        -5.4301 
  13   2.0000      -0.044003        -1.1974 
  14   2.0000      -0.043313        -1.1786 
  15   0.0000       0.302169         8.2224 
  16   0.0000       0.372276        10.1301 
  17   0.0000       0.404584        11.0093 
  18   0.0000       0.505668        13.7599 
  19   0.0000       0.574680        15.6378 
  20   0.0000       1.143736        31.1226 
  21   0.0000       1.168119        31.7861 
  22   0.0000       1.254672        34.1414 
  23   0.0000       1.261673        34.3319 
  24   0.0000       1.286805        35.0158 
  25   0.0000       1.292641        35.1746 
*Only the first 10 virtual orbitals were printed.

                    ********************************
                    * MULLIKEN POPULATION ANALYSIS *
                    ********************************

-----------------------
MULLIKEN ATOMIC CHARGES
-----------------------
   0 O :   -0.906298
   1 H :    0.440263
   2 H :    0.460550
   3 O :   -0.900296
   4 H :    0.442700
   5 H :    0.455621
   6 O :   -1.286503
   7 H :    0.293962
Sum of atomic charges:   -1.0000000

--------------------------------
MULLIKEN REDUCED ORBITAL CHARGES
--------------------------------
  0 O s       :     3.844158  s :     3.844158
      pz      :     1.914522  p :     5.029560
      px      :     1.421046
      py      :     1.693992
      dz2     :     0.003459  d :     0.032580
      dxz     :     0.005696
      dyz     :     0.005217
      dx2y2   :     0.010133
      dxy     :     0.008075

  1 H s       :     0.559737  s :     0.559737

  2 H s       :     0.539450  s :     0.539450

  3 O s       :     3.845493  s :     3.845493
      pz      :     1.459533  p :     5.021840
      px      :     1.733191
      py      :     1.829117
      dz2     :     0.014880  d :     0.032963
      dxz     :     0.004379
      dyz     :     0.001138
      dx2y2   :     0.002644
      dxy     :     0.009923

  4 H s       :     0.557300  s :     0.557300

  5 H s       :     0.544379  s :     0.544379

  6 O s       :     3.920027  s :     3.920027
      pz      :     1.991429  p :     5.348266
      px      :     1.996949
      py      :     1.359888
      dz2     :     0.003655  d :     0.018210
      dxz     :     0.000005
      dyz     :     0.001802
      dx2y2   :     0.010930
      dxy     :     0.001819

  7 H s       :     0.706038  s :     0.706038



                     *******************************
                     * LOEWDIN POPULATION ANALYSIS *
                     *******************************

----------------------
LOEWDIN ATOMIC CHARGES
----------------------
   0 O :   -0.635037
   1 H :    0.310944
   2 H :    0.319341
   3 O :   -0.630747
   4 H :    0.312134
   5 H :    0.317104
   6 O :   -1.191773
   7 H :    0.198034

-------------------------------
LOEWDIN REDUCED ORBITAL CHARGES
-------------------------------
  0 O s       :     3.553118  s :     3.553118
      pz      :     1.918919  p :     5.041062
      px      :     1.424223
      py      :     1.697920
      dz2     :     0.004032  d :     0.040857
      dxz     :     0.007388
      dyz     :     0.005591
      dx2y2   :     0.013230
      dxy     :     0.010616

  1 H s       :     0.689056  s :     0.689056

  2 H s       :     0.680659  s :     0.680659

  3 O s       :     3.553191  s :     3.553191
      pz      :     1.461316  p :     5.036084
      px      :     1.741694
      py      :     1.833075
      dz2     :     0.019621  d :     0.041472
      dxz     :     0.005501
      dyz     :     0.001598
      dx2y2   :     0.002737
      dxy     :     0.012016

  4 H s       :     0.687866  s :     0.687866

  5 H s       :     0.682896  s :     0.682896

  6 O s       :     3.744295  s :     3.744295
      pz      :     1.992495  p :     5.422493
      px      :     1.997115
      py      :     1.432883
      dz2     :     0.005350  d :     0.024985
      dxz     :     0.000005
      dyz     :     0.001806
      dx2y2   :     0.015996
      dxy     :     0.001829

  7 H s       :     0.801966  s :     0.801966



                      *****************************
                      * MAYER POPULATION ANALYSIS *
                      *****************************

  NA   - Mulliken gross atomic population
  ZA   - Total nuclear charge
  QA   - Mulliken gross atomic charge
  VA   - Mayer's total valence
  BVA  - Mayer's bonded valence
  FA   - Mayer's free valence

  ATOM       NA         ZA         QA         VA         BVA        FA
  0 O      8.9063     8.0000    -0.9063     1.5386     1.5386     0.0000
  1 H      0.5597     1.0000     0.4403     0.7708     0.7708     0.0000
  2 H      0.5394     1.0000     0.4606     0.7651     0.7651     0.0000
  3 O      8.9003     8.0000    -0.9003     1.5442     1.5442    -0.0000
  4 H      0.5573     1.0000     0.4427     0.7696     0.7696    -0.0000
  5 H      0.5444     1.0000     0.4556     0.7610     0.7610    -0.0000
  6 O      9.2865     8.0000    -1.2865     0.8712     0.8712     0.0000
  7 H      0.7060     1.0000     0.2940     0.8564     0.8564     0.0000

  Mayer bond orders larger than 0.100000
B(  0-O ,  1-H ) :   0.7805 B(  0-O ,  2-H ) :   0.7542 B(  3-O ,  4-H ) :   0.7774 
B(  3-O ,  5-H ) :   0.7655 B(  6-O ,  7-H ) :   0.8561 

-------
TIMINGS
-------

Total SCF time: 0 days 0 hours 0 min 1 sec 

Total time                  ....       1.076 sec
Sum of individual times     ....       0.989 sec  ( 91.9%)

SCF preparation             ....       0.073 sec  (  6.8%)
Fock matrix formation       ....       0.553 sec  ( 51.4%)
  Startup                   ....       0.041 sec  (  7.4% of F)
  Coulomb+Exchange Fock     ....       0.439 sec  ( 79.4% of F)
Diagonalization             ....       0.000 sec  (  0.0%)
Density matrix formation    ....       0.119 sec  ( 11.1%)
Total Energy calculation    ....       0.028 sec  (  2.6%)
Population analysis         ....       0.024 sec  (  2.2%)
Orbital Transformation      ....       0.013 sec  (  1.3%)
Orbital Orthonormalization  ....       0.000 sec  (  0.0%)
DIIS solution               ....       0.122 sec  ( 11.4%)
SOSCF solution              ....       0.056 sec  (  5.2%)
Finished LeanSCF after   1.1 sec

Maximum memory used throughout the entire LEANSCF-calculation: 7.5 MB

-------------------------   --------------------
FINAL SINGLE POINT ENERGY      -227.318371177990
-------------------------   --------------------

------------------------------------------------------------------------------
                         ORCA SCF GRADIENT CALCULATION
------------------------------------------------------------------------------

Nuc. rep. gradient        (SHARK) ... done (  0.0 sec)
HCore & Overlap gradient  (SHARK) ... done (  0.0 sec)
Two-electron gradient     (SHARK) ... done (  0.2 sec)

------------------
CARTESIAN GRADIENT
------------------

   1   O   :   -0.038674365   -0.097509696    0.076372998
   2   H   :    0.104365075    0.011140211   -0.039346120
   3   H   :   -0.068070030    0.086478876   -0.041710297
   4   O   :   -0.087790422    0.058465535    0.070937141
   5   H   :    0.080434999   -0.067051058    0.042148569
   6   H   :    0.007050021    0.007775760   -0.113726003
   7   O   :    0.000470527    0.120040768    0.004509691
   8   H   :    0.002214195   -0.119340396    0.000814020

Difference to translation invariance:
           :   -0.0000000000   -0.0000000001   -0.0000000001

Difference to rotation invariance:
           :   -0.0000015977   -0.0000002956    0.0000010268

Norm of the Cartesian gradient     ...    0.3374525826
RMS gradient                       ...    0.0688822200
MAX gradient                       ...    0.1200407675

-------
TIMINGS
-------

Total SCF gradient time     ....        0.177 sec

Densities                   ....       0.000 sec  (  0.0%)
One electron gradient       ....       0.016 sec  (  8.9%)
Two electron gradient       ....       0.161 sec  ( 91.0%)

Maximum memory used throughout the entire SCFGRAD-calculation: 13.3 MB

------------------------------------------------------------------------------
                              ORCA PROPERTY CALCULATIONS
------------------------------------------------------------------------------

GBWName                                 ... frag.gbw
Number of atoms                         ...      8
Number of basis functions               ...     52
Max core memory                         ...   1024 MB

Electric properties:
Dipole moment                           ... YES
Quadrupole moment                       ...  NO
Static polarizability (Dipole/Dipole)   ...  NO
Static polarizability (Dipole/Quad.)    ...  NO
Static polarizability (Quad./Quad.)     ...  NO
Static polarizability (Velocity)        ...  NO

Atomic electric properties:
Dipole moment                           ...  NO
Quadrupole moment                       ...  NO
Static polarizability                   ...  NO

Choice of electric origin               ... Center of mass
Position of electric origin             ...    40.337572    91.517056    76.166244

General magnetic properties:
Magnetizability                         ...  NO

EPR properties:
g-Tensor (aka g-matrix)                 ...  NO
Zero-Field splitting spin-orbit         ...  NO
Zero-field splitting spin-spin          ...  NO
Hyperfine couplings                     ...  NO (   0 nuclei)
Quadrupole couplings                    ...  NO (   0 nuclei)
Contact density                         ...  NO (   0 nuclei)

NMR properties:
Chemical shifts                         ...  NO (   0 nuclei)
Spin-rotation constants                 ...  NO (   0 nuclei)
Spin-spin couplings                     ...  NO (   0 nuclei,    0 pairs)

Choice of magnetic origin               ... GIAO
Position of magnetic origin             ...     0.000000     0.000000     0.000000

Properties with geometric perturbations:
SCF Hessian                             ...  NO
IR spectrum                             ...  NO
VCD spectrum                            ...  NO
X-ray spectroscopy properties:
SCF XES/XAS/RIXS spectra                ...  NO


-------------
DIPOLE MOMENT
-------------

Method             : SCF
Type of density    : Electron Density
Multiplicity       :   1
Irrep              :   0
Energy             :  -227.3183711779903433 Eh
Relativity type    : 
Basis              : AO
                                X                 Y                 Z
Electronic contribution:     -0.580702804      -0.184550935      -3.339518530
Nuclear contribution   :     -1.504680068       0.465173094      -1.762181907
                        -----------------------------------------
Total Dipole Moment    :     -2.085382872       0.280622159      -5.101700437
                        -----------------------------------------
Magnitude (a.u.)       :      5.518597455
Magnitude (Debye)      :     14.027159974



--------------------
Rotational spectrum 
--------------------
 
Rotational constants in cm-1:             0.243520             0.050835             0.042242 
Rotational constants in MHz :          7300.555798          1523.981538          1266.389115 

Dipole components along the rotational axes: 
x,y,z [a.u.] :    -5.070104     2.081587     0.644950 
x,y,z [Debye]:   -12.887180     5.290974     1.639333 

 

Dipole moment calculation done in   0.0 sec 

Maximum memory used throughout the entire PROP-calculation: 2.0 MB

--------------------------------
SUGGESTED CITATIONS FOR THIS RUN
--------------------------------

Below you find a list of papers that are relevant to this ORCA run
We neither can nor want to force you to cite these papers, but we appreciate if you do
You receive ORCA, which is the product of decades of hard work by many enthusiastic individuals, for free
The only thing we kindly ask in return is that you cite our papers,
We deeply appreciate it, if you show your appreciation for ORCA by not just citing the generic ORCA reference.

Please note that relegating all ORCA citations to the supporting information does *not* help us.
SI sections are not indexed - citations you put there will not count into any citation statistics
But we need these citations in order to attract the funding resources that allow us to do what we are doing

Therefore, if you are a happy ORCA user, please consider citing a few of the papers listed below in the main body of your paper

In addition to the list printed below, the program has created the file frag.bibtex that contains the list in bibtex format
You can import this file easily into all common literature databanks and citation aid programs


List of essential papers. We consider these as the minimum necessary citations

  1. Neese,F.
     Software update: the ORCA program system, version 5.0
     WIRES Comput. Molec. Sci., 2022 12(1)e1606
     doi.org/10.1002/wcms.1606

List of papers to cite with high priority. The work reported in these papers was absolutely
necessary for this run to complete.
Our perspective: the developers of density functionals and basis sets usually get cited in chemistry papers
Good! But without the algorithms to do something with them, the functionals or basis sets would not do anything.
Hence, in our opinion, the algorithm design and method developments papers are equally worthy of getting cited

  1. Neese,F.
     The SHARK Integral Generation and Digestion System
     J. Comp. Chem., 2022  1-16
     doi.org/10.1002/jcc.26942

List of suggested additional citations. These are papers that are important in the 'surrounding' of 
of this run, or papers that preceded the highly important papers. If you like your results we are grateful for a citation.

  1. Neese,F.
     The ORCA program system
     WIRES Comput. Molec. Sci., 2012 2(1)73-78
     doi.org/10.1002/wcms.81
  2. Neese,F.
     Software update: the ORCA program system, version 4.0
     WIRES Comput. Molec. Sci., 2018 8(1)1-6
     doi.org/10.1002/wcms.1327
  3. Neese,F.; Wennmohs,F.; Becker,U.; Riplinger,C.
     The ORCA quantum chemistry program package
     J. Chem. Phys., 2020 152 Art. No. L224108
     doi.org/10.1063/5.0004608

List of optional additional citations

  1. Neese,F.
     Approximate second-order SCF convergence for spin unrestricted wavefunctions
     Chem. Phys. Lett., 2000 325(1-3)93-98
     doi.org/10.1016/s0009-2614(00)00662-x

Timings for individual modules:

Sum of individual times          ...        2.055 sec (=   0.034 min)
Startup calculation              ...        0.399 sec (=   0.007 min)  19.4 %
SCF iterations                   ...        1.360 sec (=   0.023 min)  66.2 %
Property calculations            ...        0.062 sec (=   0.001 min)   3.0 %
SCF Gradient evaluation          ...        0.234 sec (=   0.004 min)  11.4 %
                             ****ORCA TERMINATED NORMALLY****
TOTAL RUN TIME: 0 days 0 hours 0 minutes 2 seconds 320 msec
