
                                 *****************
                                 * O   R   C   A *
                                 *****************

                                            #,                                       
                                            ###                                      
                                            ####                                     
                                            #####                                    
                                            ######                                   
                                           ########,                                 
                                     ,,################,,,,,                         
                               ,,#################################,,                 
                          ,,##########################################,,             
                       ,#########################################, ''#####,          
                    ,#############################################,,   '####,        
                  ,##################################################,,,,####,       
                ,###########''''           ''''###############################       
              ,#####''   ,,,,##########,,,,          '''####'''          '####       
            ,##' ,,,,###########################,,,                        '##       
           ' ,,###''''                  '''############,,,                           
         ,,##''                                '''############,,,,        ,,,,,,###''
      ,#''                                            '''#######################'''  
     '                                                          ''''####''''         
             ,#######,   #######,   ,#######,      ##                                
            ,#'     '#,  ##    ##  ,#'     '#,    #''#        ,####,   ,####,        
            ##       ##  ##   ,#'  ##            #'  '#       #'       #'  '#        
            ##       ##  #######   ##           ,######,      #####,   #    #        
            '#,     ,#'  ##    ##  '#,     ,#' ,#      #,     #,   #   #,  ,#        
             '#######'   ##     ##  '#######'  #'      '#     '####' # '####'        



                #########################################################
                #                        -***-                          #
                #          Department of theory and spectroscopy        #
                #                                                       #
                #                      Frank Neese                      #
                #                                                       #
                #     Directorship, Architecture, Infrastructure        #
                #                    SHARK, DRIVERS                     #
                #        Core code/Algorithms in most modules           #
                #                                                       #
                #        Max Planck Institute fuer Kohlenforschung      #
                #                Kaiser Wilhelm Platz 1                 #
                #                 D-45470 Muelheim/Ruhr                 #
                #                      Germany                          #
                #                                                       #
                #                  All rights reserved                  #
                #                        -***-                          #
                #########################################################


                         Program Version 6.0.1  -  RELEASE   -


 With contributions from (in alphabetic order):
[Max-Planck-Institut fuer Kohlenforschung]                               
  Daniel Aravena         : Magnetic Suceptibility                        
  Michael Atanasov       : Ab Initio Ligand Field Theory (pilot matlab implementation)
  Alexander A. Auer      : GIAO ZORA, VPT2 properties, NMR spectrum      
  Ute Becker             : All parallelization in ORCA, NUMFREQ, NUMCALC 
  Giovanni Bistoni       : ED, misc. LED, open-shell LED, HFLD           
  Martin Brehm           : Molecular dynamics                            
  Dmytro Bykov           : pre 5.0 version of the SCF Hessian            
  Marcos Casanova-Páez   : Triplet and SCS-CIS(D). UHF-(DLPNO)-IP/EA/STEOM-CCSD. UHF-CVS-IP/STEOM-CCSD   
  Vijay G. Chilkuri      : MRCI spin determinant printing, contributions to CSF-ICE 
  Pauline Colinet        : FMM embedding                                 
  Dipayan Datta          : RHF DLPNO-CCSD density                        
  Achintya Kumar Dutta   : EOM-CC, STEOM-CC                              
  Nicolas Foglia         : Exact transition moments, OPA infrastructure, MCD improvements    
  Dmitry Ganyushin       : Spin-Orbit,Spin-Spin,Magnetic field MRCI      
  Miquel Garcia-Rates    : C-PCM and meta-GGA Hessian, CCSD/C-PCM, Gaussian charge scheme 
  Tiago L. C. Gouveia    : GS-ROHF, GS-ROCIS                             
  Yang Guo               : DLPNO-NEVPT2, F12-NEVPT2, CIM, IAO-localization        
  Andreas Hansen         : Spin unrestricted coupled pair/coupled cluster methods 
  Ingolf Harden          : AUTO-CI MPn and infrastructure                
  Benjamin Helmich-Paris : MC-RPA, TRAH-(SCF,CASSCF), AVAS, COSX integrals, SCF dyn. polar. 
  Lee Huntington         : MR-EOM, pCC                                   
  Robert Izsak           : Overlap fitted RIJCOSX, COSX-SCS-MP3, EOM     
  Riya Kayal             : Wick's Theorem for AUTO-CI, AUTO-CI UHF-CCSDT 
  Emily Kempfer          : AUTO-CI, RHF CISDT and CCSDT                  
  Christian Kollmar      : KDIIS, OOCD, Brueckner-CCSD(T), CCSD density, CASPT2, CASPT2-K, improved NEVPT2 
  Axel Koslowski         : Symmetry handling                             
  Simone Kossmann        : meta-GGA functionals, TD-DFT gradient, OOMP2, (MP2 Hessian; deprecated post 5.0) 
  Lucas Lang             : DCDCAS                                        
  Marvin Lechner         : AUTO-CI (C++ implementation), FIC-MRCC        
  Spencer Leger          : CASSCF response                               
  Dagmar Lenk            : GEPOL surface, SMD, ORCA-2-JSON               
  Dimitrios Liakos       : Extrapolation schemes; Compound Job, initial MDCI parallelization 
  Dimitrios Manganas     : Further ROCIS development; embedding schemes. LFT, Crystal Embedding 
  Dimitrios Pantazis     : SARC Basis sets                               
  Anastasios Papadopoulos: AUTO-CI, single reference methods and gradients 
  Taras Petrenko         : pre 6.0 DFT Hessian and TD-DFT gradient, (ASA, deprecated), ECA, 1-Electron XAS/XES, NRVS 
  Peter Pinski           : DLPNO-MP2, DLPNO-MP2 Gradient                 
  Christoph Reimann      : Effective Core Potentials                     
  Marius Retegan         : Local ZFS, SOC                                
  Christoph Riplinger    : Optimizer, TS searches, QM/MM, DLPNO-CCSD(T), (RO)-DLPNO pert. Triples 
  Michael Roemelt        : Original ROCIS implementation                 
  Masaaki Saitow         : Open-shell DLPNO-CCSD energy and density      
  Barbara Sandhoefer     : DKH picture change effects                    
  Kantharuban Sivalingam : CASSCF convergence/infrastructure, NEVPT2 and variants, FIC-MRCI 
  Bernardo de Souza      : ESD, SOC TD-DFT                               
  Georgi L. Stoychev     : AutoAux, RI-MP2 NMR, DLPNO-MP2 response, X2C  
  Van Anh Tran           : RI-MP2 g-tensors                              
  Willem Van den Heuvel  : Paramagnetic NMR                              
  Zikuan Wang            : NOTCH, Electric field optimization            
  Frank Wennmohs         : Technical directorship and infrastructure     
  Hang Xu                : AUTO-CI-Response properties                   
                                                                         
[FACCTs GmbH]                                                            
  Markus Bursch, Miquel Garcia-Rates, Christoph Riplinger, Bernardo de Souza, Georgi L. Stoychev 
                                                                 
  APM, Basis sets (HGBS, AHGBS, def-TZVP (Ac-Lr), def2-XVPD (La-Lu)), CI-OPT, improved COSX, DLPNO-Multilevel,           
  DOCKER, DRACO, updates on ESD, GOAT, IRC, LR-CPCM, MBIS, meta-GGA TD-DFT gradient, ML-optimized integration grids, 
  MM, NACMEs, nearIR, NEB, NEB-TS, NL-DFT gradient (VV10), 2- and 3-layer-ONIOM, interface openCOSMO-RS, QMMM,   
  Crystal-QMMM, SF, symmetry and pop. for TD-DFT, r2SCAN hybrids, SOLVATOR                                   
                                                                         
[Other institutions]                                                     
  V. Asgeirsson          : NEB                                           
  Christoph Bannwarth    : sTDA-DFT, sTD-DFT, PBEh-3c, B97-3c, D3        
  Sebastian Ehlert       : rSCAN, r2SCAN, r2SCAN-3c, D4, dhf basis sets  
  Marvin Friede          : D4 for Fr, Ra, Ac-Lr                          
  Lars Goerigk           : TD-DFT with DH, B97 family of functionals     
  Stefan Grimme          : VdW corrections, initial TS optimization, DFT functionals, gCP, sTDA/sTD-DF 
  Waldemar Hujo          : DFT-NL                                        
  H. Jonsson             : NEB                                           
  Holger Kruse           : gCP                                           
  Marcel Mueller         : wB97X-3c, vDZP basis set                      
  Hagen Neugebauer       : wr2SCAN                                       
  Tobias Risthaus        : range-separated hybrid DFT                    
  Lukas Wittmann         : regularized MP2, r2SCAN double-hybrids, wr2SCAN        
                                                                         
We gratefully acknowledge several colleagues who have allowed us to      
interface, adapt or use parts of their codes:                            
  Ed Valeev, F. Pavosevic, A. Kumar             : LibInt (2-el integral package), F12 methods 
  Garnet Chan, S. Sharma, J. Yang, R. Olivares  : DMRG                   
  Ulf Ekstrom                                   : XCFun DFT Library      
  Mihaly Kallay                                 : mrcc  (arbitrary order and MRCC methods)
  Frank Weinhold                                : gennbo (NPA and NBO analysis)           
  Simon Mueller                                 : openCOSMO-RS                            
  Christopher J. Cramer and Donald G. Truhlar   : smd solvation model                     
  S Lehtola, MJT Oliveira, MAL Marques          : LibXC Library                           
  Liviu Ungur et al                             : ANISO software                          


 Your calculation uses the libint2 library for the computation of 2-el integrals
 For citations please refer to: http://libint.valeyev.net

 Your ORCA version has been built with support for libXC version: 6.2.2
 For citations please refer to: https://libxc.gitlab.io

 This ORCA versions uses:
   CBLAS   interface :  Fast vector & matrix operations
   LAPACKE interface :  Fast linear algebra routines
   SCALAPACK package :  Parallel linear algebra routines
   Shared memory     :  Shared parallel matrices
   BLAS/LAPACK       :  OpenBLAS 0.3.27  USE64BITINT DYNAMIC_ARCH NO_AFFINITY SkylakeX SINGLE_THREADED
        Core in use  :  SkylakeX
   Copyright (c) 2011-2014, The OpenBLAS Project


================================================================================

----- Orbital basis set information -----
Your calculation utilizes the basis: 6-31G*
   H-He, Li-Ne : W. J. Hehre, R. Ditchfield and J.A. Pople, J. Chem. Phys. 56, 2257 (1972).
                 Note: He and Ne are unpublished basis sets taken from the Gaussian program.
                 Note: Li and B from J. D. Dill and J. A. Pople, J. Chem. Phys. 62, 2921 (1975).
   Na - Ar     : M. M. Francl, W. J. Pietro, W. J. Hehre, J. S. Binkley, M. S. Gordon, 
                 D. J. DeFrees and J. A. Pople, J. Chem. Phys. 77, 3654 (1982).
   K - Zn      : V. A. Rassolov, J. A. Pople, M. A. Ratner, and T. L. Windus, J. Chem. Phys. 109, 1223 (1998).

================================================================================
                                        WARNINGS
                       Please study these warnings very carefully!
================================================================================


================================================================================
                                       INPUT FILE
================================================================================
NAME = frag.inp
|  1> !HF 6-31G* EnGrad
|  2> %pal nprocs 1 end
|  3> *xyz 0 1
|  4> O 21.31548000 47.19077000 40.87238000
|  5> H 22.11097000 46.98487000 41.16553000
|  6> H 20.96265000 46.41737000 40.67613000
|  7> O 20.35232000 49.63574000 40.01023000
|  8> H 20.79050000 48.92392000 40.26012000
|  9> H 19.54326000 49.49202000 40.30334000
| 10> O 19.10373000 45.58535000 40.48424000
| 11> H 18.38270000 45.25544000 40.12036000
| 12> H 18.82331000 45.89664000 41.24949000
| 13> O 21.99613000 48.36911000 43.54199000
| 14> H 21.97702000 49.24128000 43.53308000
| 15> H 21.46413000 48.14557000 42.88766000
| 16> *
| 17> 
| 18>                          ****END OF INPUT****
================================================================================

                     *******************************
                     * Energy+Gradient Calculation *
                     *******************************

---------------------------------
CARTESIAN COORDINATES (ANGSTROEM)
---------------------------------
  O     21.315480   47.190770   40.872380
  H     22.110970   46.984870   41.165530
  H     20.962650   46.417370   40.676130
  O     20.352320   49.635740   40.010230
  H     20.790500   48.923920   40.260120
  H     19.543260   49.492020   40.303340
  O     19.103730   45.585350   40.484240
  H     18.382700   45.255440   40.120360
  H     18.823310   45.896640   41.249490
  O     21.996130   48.369110   43.541990
  H     21.977020   49.241280   43.533080
  H     21.464130   48.145570   42.887660

----------------------------
CARTESIAN COORDINATES (A.U.)
----------------------------
  NO LB      ZA    FRAG     MASS         X           Y           Z
   0 O     8.0000    0    15.999   40.280420   89.177631   77.237605
   1 H     1.0000    0     1.008   41.783678   88.788537   77.791578
   2 H     1.0000    0     1.008   39.613668   87.716117   76.866746
   3 O     8.0000    0    15.999   38.460311   93.797955   75.608377
   4 H     1.0000    0     1.008   39.288351   92.452810   76.080601
   5 H     1.0000    0     1.008   36.931409   93.526364   76.162275
   6 O     8.0000    0    15.999   36.100818   86.143827   76.504126
   7 H     1.0000    0     1.008   34.738269   85.520388   75.816493
   8 H     1.0000    0     1.008   35.570901   86.732080   77.950239
   9 O     8.0000    0    15.999   41.566662   91.404371   82.282436
  10 H     1.0000    0     1.008   41.530549   93.052534   82.265599
  11 H     1.0000    0     1.008   40.561327   90.981942   81.045932

--------------------------------
INTERNAL COORDINATES (ANGSTROEM)
--------------------------------
 O      0   0   0     0.000000000000     0.00000000     0.00000000
 H      1   0   0     0.872431127712     0.00000000     0.00000000
 H      1   2   0     0.872439471482   103.59872274     0.00000000
 O      1   2   3     2.765656903703   129.11896367   197.01747687
 H      4   1   2     0.872430190273     9.76862677    18.30230780
 H      4   1   2     0.872437386922    94.16296827   213.12954087
 O      3   1   2     2.045644792944   138.51760024   155.95761940
 H      7   3   1     0.872429666735   160.72623553   104.87007073
 H      7   3   1     0.872435901944    93.70851241   310.81868034
 O      2   1   3     2.752611620770    97.66454154   232.09709776
 H     10   2   1     0.872424832923   119.65867956   292.19524676
 H     10   2   1     0.872434456277    41.32939881     8.44035756

---------------------------
INTERNAL COORDINATES (A.U.)
---------------------------
 O      0   0   0     0.000000000000     0.00000000     0.00000000
 H      1   0   0     1.648655902083     0.00000000     0.00000000
 H      1   2   0     1.648671669524   103.59872274     0.00000000
 O      1   2   3     5.226334128387   129.11896367   197.01747687
 H      4   1   2     1.648654130581     9.76862677    18.30230780
 H      4   1   2     1.648667730277    94.16296827   213.12954087
 O      3   1   2     3.865708425947   138.51760024   155.95761940
 H      7   3   1     1.648653141238   160.72623553   104.87007073
 H      7   3   1     1.648664924074    93.70851241   310.81868034
 O      2   1   3     5.201682116305    97.66454154   232.09709776
 H     10   2   1     1.648644006656   119.65867956   292.19524676
 H     10   2   1     1.648662192161    41.32939881     8.44035756

---------------------
BASIS SET INFORMATION
---------------------
There are 2 groups of distinct atoms

 Group   1 Type O   : 10s4p1d contracted to 3s2p1d pattern {631/31/1}
 Group   2 Type H   : 4s contracted to 2s pattern {31}

Atom   0O    basis set group =>   1
Atom   1H    basis set group =>   2
Atom   2H    basis set group =>   2
Atom   3O    basis set group =>   1
Atom   4H    basis set group =>   2
Atom   5H    basis set group =>   2
Atom   6O    basis set group =>   1
Atom   7H    basis set group =>   2
Atom   8H    basis set group =>   2
Atom   9O    basis set group =>   1
Atom  10H    basis set group =>   2
Atom  11H    basis set group =>   2
------------------------------------------------------------------------------
                             ORCA STARTUP CALCULATIONS
------------------------------------------------------------------------------
------------------------------------------------------------------------------
                   ___                                                        
                  /   \      - P O W E R E D   B Y -                         
                 /     \                                                     
                 |  |  |   _    _      __       _____    __    __             
                 |  |  |  | |  | |    /  \     |  _  \  |  |  /  |          
                  \  \/   | |  | |   /    \    | | | |  |  | /  /          
                 / \  \   | |__| |  /  /\  \   | |_| |  |  |/  /          
                |  |  |   |  __  | /  /__\  \  |    /   |      \           
                |  |  |   | |  | | |   __   |  |    \   |  |\   \          
                \     /   | |  | | |  |  |  |  | |\  \  |  | \   \       
                 \___/    |_|  |_| |__|  |__|  |_| \__\ |__|  \__/        
                                                                              
                      - O R C A' S   B I G   F R I E N D -                    
                                      &                                       
                       - I N T E G R A L  F E E D E R -                       
                                                                              
 v1 FN, 2020, v2 2021, v3 2022-2024                                           
------------------------------------------------------------------------------


----------------------
SHARK INTEGRAL PACKAGE
----------------------

Number of atoms                             ...     12
Number of basis functions                   ...     72
Number of shells                            ...     40
Maximum angular momentum                    ...      2
Integral batch strategy                     ... SHARK/LIBINT Hybrid
RI-J (if used) integral strategy            ... SPLIT-RIJ (Revised 2003 algorithm where possible)
Printlevel                                  ...      1
Contraction scheme used                     ... SEGMENTED contraction
Prescreening option                         ... SCHWARTZ
   Thresh                                   ... 2.500e-11
   Tcut                                     ... 2.500e-12
   Tpresel                                  ... 2.500e-12 
Coulomb Range Separation                    ... NOT USED
Exchange Range Separation                   ... NOT USED
Multipole approximations                    ... NOT USED
Finite Nucleus Model                        ... NOT USED
CABS basis                                  ... NOT available
Auxiliary Coulomb fitting basis             ... NOT available
Auxiliary J/K fitting basis                 ... NOT available
Auxiliary Correlation fitting basis         ... NOT available
Auxiliary 'external' fitting basis          ... NOT available

Checking pre-screening integrals            ... done (  0.0 sec) Dimension = 40
Check shell pair data                       ... done (  0.0 sec)
Shell pair information
Shell pair cut-off parameter TPreSel        ...   2.5e-12
Total number of shell pairs                 ...       820
Shell pairs after pre-screening             ...       749
Total number of primitive shell pairs       ...      4386
Primitive shell pairs kept                  ...      2662
          la=0 lb=0:    369 shell pairs
          la=1 lb=0:    206 shell pairs
          la=1 lb=1:     33 shell pairs
          la=2 lb=0:    102 shell pairs
          la=2 lb=1:     30 shell pairs
          la=2 lb=2:      9 shell pairs

Calculating one electron integrals          ... done (  0.0 sec)
Calculating Nuclear repulsion               ... done (  0.0 sec) ENN=    132.801781375201 Eh

Diagonalization of the overlap matrix:
Smallest eigenvalue                        ... 3.054e-02
Time for diagonalization                   ...    0.001 sec
Threshold for overlap eigenvalues          ... 1.000e-07
Number of eigenvalues below threshold      ... 0
Time for construction of square roots      ...    0.009 sec
Total time needed                          ...    0.014 sec

-------------------
DFT GRID GENERATION
-------------------

General Integration Accuracy     IntAcc      ... 4.388
Radial Grid Type                 RadialGrid  ... OptM3 with GC (2021)
Angular Grid (max. ang.)         AngularGrid ... 4 (Lebedev-302)
Angular grid pruning method      GridPruning ... 4 (adaptive)
Weight generation scheme         WeightScheme... mBecke (2022)
Basis function cutoff            BFCut       ... 1.0000e-11
Integration weight cutoff        WCut        ... 1.0000e-14
Partially contracted basis set               ... off
Rotationally invariant grid construction     ... off
Angular grids for H and He will be reduced by one unit

Total number of grid points                  ...    50670
Total number of batches                      ...      798
Average number of points per batch           ...       63
Average number of grid points per atom       ...     4222
Initializing property integral containers    ... done (  0.0 sec)

SHARK setup successfully completed in   0.5 seconds

Maximum memory used throughout the entire STARTUP-calculation: 17.5 MB
-------------------------------------------------------------------------------
                                 ORCA GUESS
                   Start orbitals & Density for SCF / CASSCF
-------------------------------------------------------------------------------

------------
SCF SETTINGS
------------
Hamiltonian:
 Ab initio Hamiltonian  Method          .... Hartree-Fock(GTOs)


General Settings:
 Integral files         IntName         .... frag
 Hartree-Fock type      HFTyp           .... RHF
 Total Charge           Charge          ....    0
 Multiplicity           Mult            ....    1
 Number of Electrons    NEL             ....   40
 Basis Dimension        Dim             ....   72
 Nuclear Repulsion      ENuc            ....    132.8017813752 Eh

Convergence Acceleration:
 AO-DIIS                CNVDIIS         .... on
   Start iteration      DIISMaxIt       ....    12
   Startup error        DIISStart       ....  0.200000
   # of expansion vecs  DIISMaxEq       ....     5
   Bias factor          DIISBfac        ....   1.050
   Max. coefficient     DIISMaxC        ....  10.000
 MO-DIIS                CNVKDIIS        .... off
 Trust-Rad. Augm. Hess. CNVTRAH         .... auto
   Auto Start mean grad. ratio tolernc. ....  1.125000
   Auto Start start iteration           ....    50
   Auto Start num. interpolation iter.  ....    10
   Max. Number of Micro iterations      ....    24
   Max. Number of Macro iterations      .... Maxiter - #DIIS iter
   Number of Davidson start vectors     ....     2
   Converg. threshold    (grad. norm)   ....   1.000e-05
   Grad. Scal. Fac. for Micro threshold ....   0.100
   Minimum threshold for Micro iter.    ....   1.000e-02
   NR start threshold (gradient norm)   ....   1.000e-04
   Initial trust radius                 ....   0.400
   Minimum AH scaling param. (alpha)    ....   1.000
   Maximum AH scaling param. (alpha)    .... 1000.000
   Quad. conv. algorithm                .... NR
   White noise on init. David. guess    .... on
   Maximum white noise                  ....   0.010
   Pseudo random numbers                .... off
   Inactive MOs                         .... canonical
   Orbital update algorithm             .... Taylor
   Preconditioner                       .... Diag
   Full preconditioner red. dimension   ....   250
 SOSCF                  CNVSOSCF        .... on
   Start iteration      SOSCFMaxIt      ....   150
   Startup grad/error   SOSCFStart      ....  0.003300
   Hessian update       SOSCFHessUp     .... L-BFGS
 Level Shifting         CNVShift        .... on
   Level shift para.    LevelShift      ....    0.2500
   Turn off err/grad.   ShiftErr        ....    0.0010
 Zerner damping         CNVZerner       .... off
 Static damping         CNVDamp         .... on
   Fraction old density DampFac         ....    0.7000
   Max. Damping (<1)    DampMax         ....    0.9800
   Min. Damping (>=0)   DampMin         ....    0.0000
   Turn off err/grad.   DampErr         ....    0.1000

SCF Procedure:
 Maximum # iterations   MaxIter         ....   125
 SCF integral mode      SCFMode         .... Direct
   Integral package                     .... SHARK and LIBINT hybrid scheme
 Reset frequency        DirectResetFreq ....    20
 Integral Threshold     Thresh          ....  2.500e-11 Eh
 Primitive CutOff       TCut            ....  2.500e-12 Eh

Convergence Tolerance:
 Convergence Check Mode ConvCheckMode   .... Total+1el-Energy
 Convergence forced     ConvForced      .... 0
 Energy Change          TolE            ....  1.000e-08 Eh
 1-El. energy change                    ....  1.000e-05 Eh
 Orbital Gradient       TolG            ....  1.000e-05
 Orbital Rotation angle TolX            ....  1.000e-05
 DIIS Error             TolErr          ....  5.000e-07

------------------------------
INITIAL GUESS: MODEL POTENTIAL
------------------------------
Loading Hartree-Fock densities                     ... done
Calculating cut-offs                               ... done
Initializing the effective Hamiltonian             ... done
Setting up the integral package (SHARK)            ... done
Starting the Coulomb interaction                   ... done (   0.0 sec)
Making the grid                                    ... done (   0.1 sec)
Mapping shells                                     ... done
Starting the XC term evaluation                    ... done (   0.0 sec)
Transforming the Hamiltonian                       ... done (   0.0 sec)
Diagonalizing the Hamiltonian                      ... done (   0.0 sec)
Back transforming the eigenvectors                 ... done (   0.0 sec)
Now organizing SCF variables                       ... done
                      ------------------
                      INITIAL GUESS DONE (   0.1 sec)
                      ------------------
             **** ENERGY FILE WAS UPDATED (frag.en.tmp) ****
Finished Guess after   0.2 sec
Maximum memory used throughout the entire GUESS-calculation: 7.5 MB

-------------------------------------------------------------------------------------------
                                      ORCA LEAN-SCF
                              memory conserving SCF solver
-------------------------------------------------------------------------------------------

----------------------------------------D-I-I-S--------------------------------------------
Iteration    Energy (Eh)           Delta-E    RMSDP     MaxDP     DIISErr   Damp  Time(sec)
-------------------------------------------------------------------------------------------
               ***  Starting incremental Fock matrix formation  ***
    1    -303.6111501720713477     0.00e+00  6.09e-03  7.40e-02  3.34e-01  0.700   0.2
    2    -303.7610924721877836    -1.50e-01  4.15e-03  5.10e-02  2.04e-01  0.700   0.2
                               ***Turning on AO-DIIS***
    3    -303.8424302893423601    -8.13e-02  1.67e-03  2.22e-02  1.15e-01  0.700   0.2
    4    -303.8916891690624880    -4.93e-02  1.03e-03  1.43e-02  7.81e-02  0.700   0.2
    5    -303.9242692809293658    -3.26e-02  2.43e-03  3.40e-02  5.55e-02  0.000   0.2
                              *** Initializing SOSCF ***
---------------------------------------S-O-S-C-F--------------------------------------
Iteration    Energy (Eh)           Delta-E    RMSDP     MaxDP     MaxGrad    Time(sec)
--------------------------------------------------------------------------------------
    6    -303.9969705216518605    -7.27e-02  1.95e-04  2.01e-03  3.22e-03     0.2
               *** Restarting incremental Fock matrix formation ***
    7    -303.9970324731152687    -6.20e-05  1.16e-04  9.36e-04  7.48e-04     0.2
    8    -303.9970445208057299    -1.20e-05  8.06e-05  6.09e-04  2.75e-04     0.2
    9    -303.9970466476074762    -2.13e-06  1.19e-05  1.12e-04  1.00e-04     0.2
   10    -303.9970467736339970    -1.26e-07  1.56e-06  1.79e-05  9.66e-06     0.1
   11    -303.9970467755854315    -1.95e-09  6.89e-07  9.32e-06  2.61e-06     0.1
                 **** Energy Check signals convergence ****

               *****************************************************
               *                     SUCCESS                       *
               *           SCF CONVERGED AFTER  11 CYCLES          *
               *****************************************************

             **** ENERGY FILE WAS UPDATED (frag.en.tmp) ****

----------------
TOTAL SCF ENERGY
----------------

Total Energy       :       -303.99704677558543 Eh           -8272.18019 eV

Components:
Nuclear Repulsion  :        132.80178137520133 Eh            3613.72019 eV
Electronic Energy  :       -436.79882815078673 Eh          -11885.90038 eV
One Electron Energy:       -683.12902011536858 Eh          -18588.88568 eV
Two Electron Energy:        246.33019196458184 Eh            6702.98530 eV

Virial components:
Potential Energy   :       -609.55757515512755 Eh          -16586.90488 eV
Kinetic Energy     :        305.56052837954212 Eh            8314.72469 eV
Virial Ratio       :          1.99488323438813

---------------
SCF CONVERGENCE
---------------

  Last Energy change         ...    1.9514e-09  Tolerance :   1.0000e-08
  Last MAX-Density change    ...    9.3151e-06  Tolerance :   1.0000e-07
  Last RMS-Density change    ...    6.8873e-07  Tolerance :   5.0000e-09
  Last DIIS Error            ...    3.2223e-03  Tolerance :   5.0000e-07
  Last Orbital Gradient      ...    2.6097e-06  Tolerance :   1.0000e-05
  Last Orbital Rotation      ...    2.5658e-06  Tolerance :   1.0000e-05


----------------
ORBITAL ENERGIES
----------------

  NO   OCC          E(Eh)            E(eV) 
   0   2.0000     -20.572319      -559.8013 
   1   2.0000     -20.562184      -559.5255 
   2   2.0000     -20.529859      -558.6459 
   3   2.0000     -20.503985      -557.9418 
   4   2.0000      -1.427872       -38.8544 
   5   2.0000      -1.415543       -38.5189 
   6   2.0000      -1.383800       -37.6551 
   7   2.0000      -1.359880       -37.0042 
   8   2.0000      -0.797227       -21.6936 
   9   2.0000      -0.774674       -21.0799 
  10   2.0000      -0.745844       -20.2954 
  11   2.0000      -0.730409       -19.8754 
  12   2.0000      -0.632359       -17.2074 
  13   2.0000      -0.619261       -16.8510 
  14   2.0000      -0.583030       -15.8650 
  15   2.0000      -0.552209       -15.0264 
  16   2.0000      -0.539703       -14.6861 
  17   2.0000      -0.531345       -14.4586 
  18   2.0000      -0.498063       -13.5530 
  19   2.0000      -0.474753       -12.9187 
  20   0.0000       0.192047         5.2259 
  21   0.0000       0.232724         6.3327 
  22   0.0000       0.281378         7.6567 
  23   0.0000       0.283707         7.7201 
  24   0.0000       0.307301         8.3621 
  25   0.0000       0.370305        10.0765 
  26   0.0000       0.399053        10.8588 
  27   0.0000       0.466424        12.6921 
  28   0.0000       0.979648        26.6576 
  29   0.0000       1.049325        28.5536 
  30   0.0000       1.065005        28.9803 
*Only the first 10 virtual orbitals were printed.

                    ********************************
                    * MULLIKEN POPULATION ANALYSIS *
                    ********************************

-----------------------
MULLIKEN ATOMIC CHARGES
-----------------------
   0 O :   -0.936304
   1 H :    0.458072
   2 H :    0.495957
   3 O :   -0.945279
   4 H :    0.502948
   5 H :    0.426539
   6 O :   -0.898840
   7 H :    0.458189
   8 H :    0.452887
   9 O :   -0.920390
  10 H :    0.445234
  11 H :    0.460988
Sum of atomic charges:    0.0000000

--------------------------------
MULLIKEN REDUCED ORBITAL CHARGES
--------------------------------
  0 O s       :     3.853005  s :     3.853005
      pz      :     1.904997  p :     5.052163
      px      :     1.505793
      py      :     1.641374
      dz2     :     0.004349  d :     0.031136
      dxz     :     0.003086
      dyz     :     0.003367
      dx2y2   :     0.012236
      dxy     :     0.008098

  1 H s       :     0.541928  s :     0.541928

  2 H s       :     0.504043  s :     0.504043

  3 O s       :     3.852929  s :     3.852929
      pz      :     1.916417  p :     5.059560
      px      :     1.418098
      py      :     1.725045
      dz2     :     0.003476  d :     0.032790
      dxz     :     0.006342
      dyz     :     0.005505
      dx2y2   :     0.009576
      dxy     :     0.007892

  4 H s       :     0.497052  s :     0.497052

  5 H s       :     0.573461  s :     0.573461

  6 O s       :     3.843273  s :     3.843273
      pz      :     1.517109  p :     5.023421
      px      :     1.646747
      py      :     1.859565
      dz2     :     0.006757  d :     0.032147
      dxz     :     0.010366
      dyz     :     0.002633
      dx2y2   :     0.005813
      dxy     :     0.006579

  7 H s       :     0.541811  s :     0.541811

  8 H s       :     0.547113  s :     0.547113

  9 O s       :     3.852013  s :     3.852013
      pz      :     1.747505  p :     5.035300
      px      :     1.820505
      py      :     1.467290
      dz2     :     0.007173  d :     0.033078
      dxz     :     0.010351
      dyz     :     0.001753
      dx2y2   :     0.012207
      dxy     :     0.001593

 10 H s       :     0.554766  s :     0.554766

 11 H s       :     0.539012  s :     0.539012



                     *******************************
                     * LOEWDIN POPULATION ANALYSIS *
                     *******************************

----------------------
LOEWDIN ATOMIC CHARGES
----------------------
   0 O :   -0.608597
   1 H :    0.321094
   2 H :    0.318580
   3 O :   -0.645779
   4 H :    0.301475
   5 H :    0.306490
   6 O :   -0.615299
   7 H :    0.320699
   8 H :    0.318019
   9 O :   -0.636864
  10 H :    0.315371
  11 H :    0.304811

-------------------------------
LOEWDIN REDUCED ORBITAL CHARGES
-------------------------------
  0 O s       :     3.540455  s :     3.540455
      pz      :     1.899862  p :     5.029285
      px      :     1.499429
      py      :     1.629994
      dz2     :     0.004911  d :     0.038857
      dxz     :     0.004016
      dyz     :     0.004000
      dx2y2   :     0.015594
      dxy     :     0.010335

  1 H s       :     0.678906  s :     0.678906

  2 H s       :     0.681420  s :     0.681420

  3 O s       :     3.544550  s :     3.544550
      pz      :     1.919022  p :     5.060672
      px      :     1.423187
      py      :     1.718463
      dz2     :     0.004014  d :     0.040557
      dxz     :     0.007997
      dyz     :     0.005688
      dx2y2   :     0.012722
      dxy     :     0.010135

  4 H s       :     0.698525  s :     0.698525

  5 H s       :     0.693510  s :     0.693510

  6 O s       :     3.548506  s :     3.548506
      pz      :     1.517952  p :     5.026138
      px      :     1.652109
      py      :     1.856078
      dz2     :     0.009050  d :     0.040655
      dxz     :     0.013236
      dyz     :     0.003705
      dx2y2   :     0.006527
      dxy     :     0.008137

  7 H s       :     0.679301  s :     0.679301

  8 H s       :     0.681981  s :     0.681981

  9 O s       :     3.551249  s :     3.551249
      pz      :     1.745796  p :     5.044408
      px      :     1.826032
      py      :     1.472580
      dz2     :     0.008903  d :     0.041206
      dxz     :     0.012281
      dyz     :     0.002263
      dx2y2   :     0.015824
      dxy     :     0.001934

 10 H s       :     0.684629  s :     0.684629

 11 H s       :     0.695189  s :     0.695189



                      *****************************
                      * MAYER POPULATION ANALYSIS *
                      *****************************

  NA   - Mulliken gross atomic population
  ZA   - Total nuclear charge
  QA   - Mulliken gross atomic charge
  VA   - Mayer's total valence
  BVA  - Mayer's bonded valence
  FA   - Mayer's free valence

  ATOM       NA         ZA         QA         VA         BVA        FA
  0 O      8.9363     8.0000    -0.9363     1.5532     1.5532     0.0000
  1 H      0.5419     1.0000     0.4581     0.7612     0.7612     0.0000
  2 H      0.5040     1.0000     0.4960     0.7352     0.7352     0.0000
  3 O      8.9453     8.0000    -0.9453     1.4985     1.4985     0.0000
  4 H      0.4971     1.0000     0.5029     0.7319     0.7319     0.0000
  5 H      0.5735     1.0000     0.4265     0.7835     0.7835     0.0000
  6 O      8.8988     8.0000    -0.8988     1.5645     1.5645    -0.0000
  7 H      0.5418     1.0000     0.4582     0.7583     0.7583    -0.0000
  8 H      0.5471     1.0000     0.4529     0.7604     0.7604     0.0000
  9 O      8.9204     8.0000    -0.9204     1.5236     1.5236     0.0000
 10 H      0.5548     1.0000     0.4452     0.7688     0.7688     0.0000
 11 H      0.5390     1.0000     0.4610     0.7691     0.7691     0.0000

  Mayer bond orders larger than 0.100000
B(  0-O ,  1-H ) :   0.7596 B(  0-O ,  2-H ) :   0.7089 B(  3-O ,  4-H ) :   0.7010 
B(  3-O ,  5-H ) :   0.7917 B(  6-O ,  7-H ) :   0.7660 B(  6-O ,  8-H ) :   0.7662 
B(  9-O , 10-H ) :   0.7779 B(  9-O , 11-H ) :   0.7371 

-------
TIMINGS
-------

Total SCF time: 0 days 0 hours 0 min 2 sec 

Total time                  ....       2.150 sec
Sum of individual times     ....       2.076 sec  ( 96.6%)

SCF preparation             ....       0.066 sec  (  3.1%)
Fock matrix formation       ....       1.708 sec  ( 79.4%)
  Startup                   ....       0.024 sec  (  1.4% of F)
  Coulomb+Exchange Fock     ....       1.617 sec  ( 94.7% of F)
Diagonalization             ....       0.000 sec  (  0.0%)
Density matrix formation    ....       0.093 sec  (  4.3%)
Total Energy calculation    ....       0.017 sec  (  0.8%)
Population analysis         ....       0.018 sec  (  0.8%)
Orbital Transformation      ....       0.017 sec  (  0.8%)
Orbital Orthonormalization  ....       0.000 sec  (  0.0%)
DIIS solution               ....       0.101 sec  (  4.7%)
SOSCF solution              ....       0.057 sec  (  2.7%)
Finished LeanSCF after   2.2 sec

Maximum memory used throughout the entire LEANSCF-calculation: 8.4 MB

-------------------------   --------------------
FINAL SINGLE POINT ENERGY      -303.997046775585
-------------------------   --------------------

------------------------------------------------------------------------------
                         ORCA SCF GRADIENT CALCULATION
------------------------------------------------------------------------------

Nuc. rep. gradient        (SHARK) ... done (  0.0 sec)
HCore & Overlap gradient  (SHARK) ... done (  0.0 sec)
Two-electron gradient     (SHARK) ... done (  0.6 sec)

------------------
CARTESIAN GRADIENT
------------------

   1   O   :    0.044273202   -0.110942180    0.003460959
   2   H   :   -0.108697587    0.016072914   -0.039238812
   3   H   :    0.059820975    0.097298163    0.033681210
   4   O   :   -0.040057761   -0.107914034    0.062178348
   5   H   :   -0.063894774    0.091942858   -0.026173502
   6   H   :    0.105785832    0.011708616   -0.033380252
   7   O   :   -0.114644476   -0.000615193    0.044196357
   8   H   :    0.087797192    0.046254296    0.056689816
   9   H   :    0.028857493   -0.043577456   -0.102131111
  10   O   :   -0.064228626    0.075772005   -0.078051711
  11   H   :   -0.003850042   -0.113370498   -0.005427167
  12   H   :    0.068838573    0.037370509    0.084195865

Difference to translation invariance:
           :   -0.0000000001   -0.0000000001   -0.0000000000

Difference to rotation invariance:
           :    0.0000000884    0.0000008188    0.0000002734

Norm of the Cartesian gradient     ...    0.4101876516
RMS gradient                       ...    0.0683646086
MAX gradient                       ...    0.1146444764

-------
TIMINGS
-------

Total SCF gradient time     ....        0.653 sec

Densities                   ....       0.000 sec  (  0.0%)
One electron gradient       ....       0.042 sec  (  6.5%)
Two electron gradient       ....       0.611 sec  ( 93.5%)

Maximum memory used throughout the entire SCFGRAD-calculation: 14.2 MB

------------------------------------------------------------------------------
                              ORCA PROPERTY CALCULATIONS
------------------------------------------------------------------------------

GBWName                                 ... frag.gbw
Number of atoms                         ...     12
Number of basis functions               ...     72
Max core memory                         ...   1024 MB

Electric properties:
Dipole moment                           ... YES
Quadrupole moment                       ...  NO
Static polarizability (Dipole/Dipole)   ...  NO
Static polarizability (Dipole/Quad.)    ...  NO
Static polarizability (Quad./Quad.)     ...  NO
Static polarizability (Velocity)        ...  NO

Atomic electric properties:
Dipole moment                           ...  NO
Quadrupole moment                       ...  NO
Static polarizability                   ...  NO

Choice of electric origin               ... Center of mass
Position of electric origin             ...    39.062909    90.099098    77.918129

General magnetic properties:
Magnetizability                         ...  NO

EPR properties:
g-Tensor (aka g-matrix)                 ...  NO
Zero-Field splitting spin-orbit         ...  NO
Zero-field splitting spin-spin          ...  NO
Hyperfine couplings                     ...  NO (   0 nuclei)
Quadrupole couplings                    ...  NO (   0 nuclei)
Contact density                         ...  NO (   0 nuclei)

NMR properties:
Chemical shifts                         ...  NO (   0 nuclei)
Spin-rotation constants                 ...  NO (   0 nuclei)
Spin-spin couplings                     ...  NO (   0 nuclei,    0 pairs)

Choice of magnetic origin               ... GIAO
Position of magnetic origin             ...     0.000000     0.000000     0.000000

Properties with geometric perturbations:
SCF Hessian                             ...  NO
IR spectrum                             ...  NO
VCD spectrum                            ...  NO
X-ray spectroscopy properties:
SCF XES/XAS/RIXS spectra                ...  NO


-------------
DIPOLE MOMENT
-------------

Method             : SCF
Type of density    : Electron Density
Multiplicity       :   1
Irrep              :   0
Energy             :  -303.9970467755854315 Eh
Relativity type    : 
Basis              : AO
                                X                 Y                 Z
Electronic contribution:      0.042360142      -0.195471715      -0.082079713
Nuclear contribution   :     -1.232542984      -1.002853066       0.314657292
                        -----------------------------------------
Total Dipole Moment    :     -1.190182842      -1.198324781       0.232577579
                        -----------------------------------------
Magnitude (a.u.)       :      1.704878239
Magnitude (Debye)      :      4.333456097



--------------------
Rotational spectrum 
--------------------
 
Rotational constants in cm-1:             0.112361             0.066400             0.046416 
Rotational constants in MHz :          3368.489002          1990.607536          1391.527449 

Dipole components along the rotational axes: 
x,y,z [a.u.] :    -1.281401    -0.829150     0.759692 
x,y,z [Debye]:    -3.257062    -2.107532     1.930984 

 

Dipole moment calculation done in   0.0 sec 

Maximum memory used throughout the entire PROP-calculation: 2.9 MB

--------------------------------
SUGGESTED CITATIONS FOR THIS RUN
--------------------------------

Below you find a list of papers that are relevant to this ORCA run
We neither can nor want to force you to cite these papers, but we appreciate if you do
You receive ORCA, which is the product of decades of hard work by many enthusiastic individuals, for free
The only thing we kindly ask in return is that you cite our papers,
We deeply appreciate it, if you show your appreciation for ORCA by not just citing the generic ORCA reference.

Please note that relegating all ORCA citations to the supporting information does *not* help us.
SI sections are not indexed - citations you put there will not count into any citation statistics
But we need these citations in order to attract the funding resources that allow us to do what we are doing

Therefore, if you are a happy ORCA user, please consider citing a few of the papers listed below in the main body of your paper

In addition to the list printed below, the program has created the file frag.bibtex that contains the list in bibtex format
You can import this file easily into all common literature databanks and citation aid programs


List of essential papers. We consider these as the minimum necessary citations

  1. Neese,F.
     Software update: the ORCA program system, version 5.0
     WIRES Comput. Molec. Sci., 2022 12(1)e1606
     doi.org/10.1002/wcms.1606

List of papers to cite with high priority. The work reported in these papers was absolutely
necessary for this run to complete.
Our perspective: the developers of density functionals and basis sets usually get cited in chemistry papers
Good! But without the algorithms to do something with them, the functionals or basis sets would not do anything.
Hence, in our opinion, the algorithm design and method developments papers are equally worthy of getting cited

  1. Neese,F.
     The SHARK Integral Generation and Digestion System
     J. Comp. Chem., 2022  1-16
     doi.org/10.1002/jcc.26942

List of suggested additional citations. These are papers that are important in the 'surrounding' of 
of this run, or papers that preceded the highly important papers. If you like your results we are grateful for a citation.

  1. Neese,F.
     The ORCA program system
     WIRES Comput. Molec. Sci., 2012 2(1)73-78
     doi.org/10.1002/wcms.81
  2. Neese,F.
     Software update: the ORCA program system, version 4.0
     WIRES Comput. Molec. Sci., 2018 8(1)1-6
     doi.org/10.1002/wcms.1327
  3. Neese,F.; Wennmohs,F.; Becker,U.; Riplinger,C.
     The ORCA quantum chemistry program package
     J. Chem. Phys., 2020 152 Art. No. L224108
     doi.org/10.1063/5.0004608

List of optional additional citations

  1. Neese,F.
     Approximate second-order SCF convergence for spin unrestricted wavefunctions
     Chem. Phys. Lett., 2000 325(1-3)93-98
     doi.org/10.1016/s0009-2614(00)00662-x

Timings for individual modules:

Sum of individual times          ...        3.746 sec (=   0.062 min)
Startup calculation              ...        0.530 sec (=   0.009 min)  14.2 %
SCF iterations                   ...        2.437 sec (=   0.041 min)  65.1 %
Property calculations            ...        0.054 sec (=   0.001 min)   1.4 %
SCF Gradient evaluation          ...        0.724 sec (=   0.012 min)  19.3 %
                             ****ORCA TERMINATED NORMALLY****
TOTAL RUN TIME: 0 days 0 hours 0 minutes 3 seconds 968 msec
