
                                 *****************
                                 * O   R   C   A *
                                 *****************

                                            #,                                       
                                            ###                                      
                                            ####                                     
                                            #####                                    
                                            ######                                   
                                           ########,                                 
                                     ,,################,,,,,                         
                               ,,#################################,,                 
                          ,,##########################################,,             
                       ,#########################################, ''#####,          
                    ,#############################################,,   '####,        
                  ,##################################################,,,,####,       
                ,###########''''           ''''###############################       
              ,#####''   ,,,,##########,,,,          '''####'''          '####       
            ,##' ,,,,###########################,,,                        '##       
           ' ,,###''''                  '''############,,,                           
         ,,##''                                '''############,,,,        ,,,,,,###''
      ,#''                                            '''#######################'''  
     '                                                          ''''####''''         
             ,#######,   #######,   ,#######,      ##                                
            ,#'     '#,  ##    ##  ,#'     '#,    #''#        ,####,   ,####,        
            ##       ##  ##   ,#'  ##            #'  '#       #'       #'  '#        
            ##       ##  #######   ##           ,######,      #####,   #    #        
            '#,     ,#'  ##    ##  '#,     ,#' ,#      #,     #,   #   #,  ,#        
             '#######'   ##     ##  '#######'  #'      '#     '####' # '####'        



                #########################################################
                #                        -***-                          #
                #          Department of theory and spectroscopy        #
                #                                                       #
                #                      Frank Neese                      #
                #                                                       #
                #     Directorship, Architecture, Infrastructure        #
                #                    SHARK, DRIVERS                     #
                #        Core code/Algorithms in most modules           #
                #                                                       #
                #        Max Planck Institute fuer Kohlenforschung      #
                #                Kaiser Wilhelm Platz 1                 #
                #                 D-45470 Muelheim/Ruhr                 #
                #                      Germany                          #
                #                                                       #
                #                  All rights reserved                  #
                #                        -***-                          #
                #########################################################


                         Program Version 6.0.1  -  RELEASE   -


 With contributions from (in alphabetic order):
[Max-Planck-Institut fuer Kohlenforschung]                               
  Daniel Aravena         : Magnetic Suceptibility                        
  Michael Atanasov       : Ab Initio Ligand Field Theory (pilot matlab implementation)
  Alexander A. Auer      : GIAO ZORA, VPT2 properties, NMR spectrum      
  Ute Becker             : All parallelization in ORCA, NUMFREQ, NUMCALC 
  Giovanni Bistoni       : ED, misc. LED, open-shell LED, HFLD           
  Martin Brehm           : Molecular dynamics                            
  Dmytro Bykov           : pre 5.0 version of the SCF Hessian            
  Marcos Casanova-Páez   : Triplet and SCS-CIS(D). UHF-(DLPNO)-IP/EA/STEOM-CCSD. UHF-CVS-IP/STEOM-CCSD   
  Vijay G. Chilkuri      : MRCI spin determinant printing, contributions to CSF-ICE 
  Pauline Colinet        : FMM embedding                                 
  Dipayan Datta          : RHF DLPNO-CCSD density                        
  Achintya Kumar Dutta   : EOM-CC, STEOM-CC                              
  Nicolas Foglia         : Exact transition moments, OPA infrastructure, MCD improvements    
  Dmitry Ganyushin       : Spin-Orbit,Spin-Spin,Magnetic field MRCI      
  Miquel Garcia-Rates    : C-PCM and meta-GGA Hessian, CCSD/C-PCM, Gaussian charge scheme 
  Tiago L. C. Gouveia    : GS-ROHF, GS-ROCIS                             
  Yang Guo               : DLPNO-NEVPT2, F12-NEVPT2, CIM, IAO-localization        
  Andreas Hansen         : Spin unrestricted coupled pair/coupled cluster methods 
  Ingolf Harden          : AUTO-CI MPn and infrastructure                
  Benjamin Helmich-Paris : MC-RPA, TRAH-(SCF,CASSCF), AVAS, COSX integrals, SCF dyn. polar. 
  Lee Huntington         : MR-EOM, pCC                                   
  Robert Izsak           : Overlap fitted RIJCOSX, COSX-SCS-MP3, EOM     
  Riya Kayal             : Wick's Theorem for AUTO-CI, AUTO-CI UHF-CCSDT 
  Emily Kempfer          : AUTO-CI, RHF CISDT and CCSDT                  
  Christian Kollmar      : KDIIS, OOCD, Brueckner-CCSD(T), CCSD density, CASPT2, CASPT2-K, improved NEVPT2 
  Axel Koslowski         : Symmetry handling                             
  Simone Kossmann        : meta-GGA functionals, TD-DFT gradient, OOMP2, (MP2 Hessian; deprecated post 5.0) 
  Lucas Lang             : DCDCAS                                        
  Marvin Lechner         : AUTO-CI (C++ implementation), FIC-MRCC        
  Spencer Leger          : CASSCF response                               
  Dagmar Lenk            : GEPOL surface, SMD, ORCA-2-JSON               
  Dimitrios Liakos       : Extrapolation schemes; Compound Job, initial MDCI parallelization 
  Dimitrios Manganas     : Further ROCIS development; embedding schemes. LFT, Crystal Embedding 
  Dimitrios Pantazis     : SARC Basis sets                               
  Anastasios Papadopoulos: AUTO-CI, single reference methods and gradients 
  Taras Petrenko         : pre 6.0 DFT Hessian and TD-DFT gradient, (ASA, deprecated), ECA, 1-Electron XAS/XES, NRVS 
  Peter Pinski           : DLPNO-MP2, DLPNO-MP2 Gradient                 
  Christoph Reimann      : Effective Core Potentials                     
  Marius Retegan         : Local ZFS, SOC                                
  Christoph Riplinger    : Optimizer, TS searches, QM/MM, DLPNO-CCSD(T), (RO)-DLPNO pert. Triples 
  Michael Roemelt        : Original ROCIS implementation                 
  Masaaki Saitow         : Open-shell DLPNO-CCSD energy and density      
  Barbara Sandhoefer     : DKH picture change effects                    
  Kantharuban Sivalingam : CASSCF convergence/infrastructure, NEVPT2 and variants, FIC-MRCI 
  Bernardo de Souza      : ESD, SOC TD-DFT                               
  Georgi L. Stoychev     : AutoAux, RI-MP2 NMR, DLPNO-MP2 response, X2C  
  Van Anh Tran           : RI-MP2 g-tensors                              
  Willem Van den Heuvel  : Paramagnetic NMR                              
  Zikuan Wang            : NOTCH, Electric field optimization            
  Frank Wennmohs         : Technical directorship and infrastructure     
  Hang Xu                : AUTO-CI-Response properties                   
                                                                         
[FACCTs GmbH]                                                            
  Markus Bursch, Miquel Garcia-Rates, Christoph Riplinger, Bernardo de Souza, Georgi L. Stoychev 
                                                                 
  APM, Basis sets (HGBS, AHGBS, def-TZVP (Ac-Lr), def2-XVPD (La-Lu)), CI-OPT, improved COSX, DLPNO-Multilevel,           
  DOCKER, DRACO, updates on ESD, GOAT, IRC, LR-CPCM, MBIS, meta-GGA TD-DFT gradient, ML-optimized integration grids, 
  MM, NACMEs, nearIR, NEB, NEB-TS, NL-DFT gradient (VV10), 2- and 3-layer-ONIOM, interface openCOSMO-RS, QMMM,   
  Crystal-QMMM, SF, symmetry and pop. for TD-DFT, r2SCAN hybrids, SOLVATOR                                   
                                                                         
[Other institutions]                                                     
  V. Asgeirsson          : NEB                                           
  Christoph Bannwarth    : sTDA-DFT, sTD-DFT, PBEh-3c, B97-3c, D3        
  Sebastian Ehlert       : rSCAN, r2SCAN, r2SCAN-3c, D4, dhf basis sets  
  Marvin Friede          : D4 for Fr, Ra, Ac-Lr                          
  Lars Goerigk           : TD-DFT with DH, B97 family of functionals     
  Stefan Grimme          : VdW corrections, initial TS optimization, DFT functionals, gCP, sTDA/sTD-DF 
  Waldemar Hujo          : DFT-NL                                        
  H. Jonsson             : NEB                                           
  Holger Kruse           : gCP                                           
  Marcel Mueller         : wB97X-3c, vDZP basis set                      
  Hagen Neugebauer       : wr2SCAN                                       
  Tobias Risthaus        : range-separated hybrid DFT                    
  Lukas Wittmann         : regularized MP2, r2SCAN double-hybrids, wr2SCAN        
                                                                         
We gratefully acknowledge several colleagues who have allowed us to      
interface, adapt or use parts of their codes:                            
  Ed Valeev, F. Pavosevic, A. Kumar             : LibInt (2-el integral package), F12 methods 
  Garnet Chan, S. Sharma, J. Yang, R. Olivares  : DMRG                   
  Ulf Ekstrom                                   : XCFun DFT Library      
  Mihaly Kallay                                 : mrcc  (arbitrary order and MRCC methods)
  Frank Weinhold                                : gennbo (NPA and NBO analysis)           
  Simon Mueller                                 : openCOSMO-RS                            
  Christopher J. Cramer and Donald G. Truhlar   : smd solvation model                     
  S Lehtola, MJT Oliveira, MAL Marques          : LibXC Library                           
  Liviu Ungur et al                             : ANISO software                          


 Your calculation uses the libint2 library for the computation of 2-el integrals
 For citations please refer to: http://libint.valeyev.net

 Your ORCA version has been built with support for libXC version: 6.2.2
 For citations please refer to: https://libxc.gitlab.io

 This ORCA versions uses:
   CBLAS   interface :  Fast vector & matrix operations
   LAPACKE interface :  Fast linear algebra routines
   SCALAPACK package :  Parallel linear algebra routines
   Shared memory     :  Shared parallel matrices
   BLAS/LAPACK       :  OpenBLAS 0.3.27  USE64BITINT DYNAMIC_ARCH NO_AFFINITY SkylakeX SINGLE_THREADED
        Core in use  :  SkylakeX
   Copyright (c) 2011-2014, The OpenBLAS Project


================================================================================

----- Orbital basis set information -----
Your calculation utilizes the basis: 6-31G*
   H-He, Li-Ne : W. J. Hehre, R. Ditchfield and J.A. Pople, J. Chem. Phys. 56, 2257 (1972).
                 Note: He and Ne are unpublished basis sets taken from the Gaussian program.
                 Note: Li and B from J. D. Dill and J. A. Pople, J. Chem. Phys. 62, 2921 (1975).
   Na - Ar     : M. M. Francl, W. J. Pietro, W. J. Hehre, J. S. Binkley, M. S. Gordon, 
                 D. J. DeFrees and J. A. Pople, J. Chem. Phys. 77, 3654 (1982).
   K - Zn      : V. A. Rassolov, J. A. Pople, M. A. Ratner, and T. L. Windus, J. Chem. Phys. 109, 1223 (1998).

================================================================================
                                        WARNINGS
                       Please study these warnings very carefully!
================================================================================


================================================================================
                                       INPUT FILE
================================================================================
NAME = frag.inp
|  1> !HF 6-31G* EnGrad
|  2> %pal nprocs 1 end
|  3> *xyz 0 1
|  4> O 21.78987000 47.25010000 37.48256000
|  5> H 21.67133000 47.22017000 38.34638000
|  6> H 21.14108000 47.76263000 37.20411000
|  7> O 19.10373000 45.58535000 40.48424000
|  8> H 18.38270000 45.25544000 40.12036000
|  9> H 18.82331000 45.89664000 41.24949000
| 10> O 22.25294000 44.28778000 39.87163000
| 11> H 22.68414000 43.83080000 40.47691000
| 12> H 22.81575000 44.91633000 39.64956000
| 13> O 21.99613000 48.36911000 43.54199000
| 14> H 21.97702000 49.24128000 43.53308000
| 15> H 21.46413000 48.14557000 42.88766000
| 16> *
| 17> 
| 18>                          ****END OF INPUT****
================================================================================

                     *******************************
                     * Energy+Gradient Calculation *
                     *******************************

---------------------------------
CARTESIAN COORDINATES (ANGSTROEM)
---------------------------------
  O     21.789870   47.250100   37.482560
  H     21.671330   47.220170   38.346380
  H     21.141080   47.762630   37.204110
  O     19.103730   45.585350   40.484240
  H     18.382700   45.255440   40.120360
  H     18.823310   45.896640   41.249490
  O     22.252940   44.287780   39.871630
  H     22.684140   43.830800   40.476910
  H     22.815750   44.916330   39.649560
  O     21.996130   48.369110   43.541990
  H     21.977020   49.241280   43.533080
  H     21.464130   48.145570   42.887660

----------------------------
CARTESIAN COORDINATES (A.U.)
----------------------------
  NO LB      ZA    FRAG     MASS         X           Y           Z
   0 O     8.0000    0    15.999   41.176887   89.289749   70.831773
   1 H     1.0000    0     1.008   40.952879   89.233189   72.464156
   2 H     1.0000    0     1.008   39.950851   90.258290   70.305579
   3 O     8.0000    0    15.999   36.100818   86.143827   76.504126
   4 H     1.0000    0     1.008   34.738269   85.520388   75.816493
   5 H     1.0000    0     1.008   35.570901   86.732080   77.950239
   6 O     8.0000    0    15.999   42.051962   83.691775   75.346461
   7 H     1.0000    0     1.008   42.866812   82.828208   76.490275
   8 H     1.0000    0     1.008   43.115519   84.879563   74.926810
   9 O     8.0000    0    15.999   41.566662   91.404371   82.282436
  10 H     1.0000    0     1.008   41.530549   93.052534   82.265599
  11 H     1.0000    0     1.008   40.561327   90.981942   81.045932

--------------------------------
INTERNAL COORDINATES (ANGSTROEM)
--------------------------------
 O      0   0   0     0.000000000000     0.00000000     0.00000000
 H      1   0   0     0.872429096775     0.00000000     0.00000000
 H      1   2   0     0.872439033687   103.59897658     0.00000000
 O      2   1   3     3.719630569290   132.68352841    71.12921448
 H      4   2   1     0.872429666735   119.79994743   348.29022196
 H      4   2   1     0.872435901944   124.69375762   211.73664810
 O      2   1   3     3.356124083925   117.15578849   141.82965126
 H      7   2   1     0.872426523439   149.16283161   122.62062527
 H      7   2   1     0.872436406565    50.70030800    83.72012381
 O      6   4   2     4.629843507431   113.86593069   330.35169088
 H     10   6   4     0.872424832923   120.91759881   100.79175785
 H     10   6   4     0.872434456277    22.16698370    58.82952479

---------------------------
INTERNAL COORDINATES (A.U.)
---------------------------
 O      0   0   0     0.000000000000     0.00000000     0.00000000
 H      1   0   0     1.648652064169     0.00000000     0.00000000
 H      1   2   0     1.648670842211   103.59897658     0.00000000
 O      2   1   3     7.029083095321   132.68352841    71.12921448
 H      4   2   1     1.648653141238   119.79994743   348.29022196
 H      4   2   1     1.648664924074   124.69375762   211.73664810
 O      2   1   3     6.342155390075   117.15578849   141.82965126
 H      7   2   1     1.648647201269   149.16283161   122.62062527
 H      7   2   1     1.648665877670    50.70030800    83.72012381
 O      6   4   2     8.749136271958   113.86593069   330.35169088
 H     10   6   4     1.648644006656   120.91759881   100.79175785
 H     10   6   4     1.648662192161    22.16698370    58.82952479

---------------------
BASIS SET INFORMATION
---------------------
There are 2 groups of distinct atoms

 Group   1 Type O   : 10s4p1d contracted to 3s2p1d pattern {631/31/1}
 Group   2 Type H   : 4s contracted to 2s pattern {31}

Atom   0O    basis set group =>   1
Atom   1H    basis set group =>   2
Atom   2H    basis set group =>   2
Atom   3O    basis set group =>   1
Atom   4H    basis set group =>   2
Atom   5H    basis set group =>   2
Atom   6O    basis set group =>   1
Atom   7H    basis set group =>   2
Atom   8H    basis set group =>   2
Atom   9O    basis set group =>   1
Atom  10H    basis set group =>   2
Atom  11H    basis set group =>   2
------------------------------------------------------------------------------
                             ORCA STARTUP CALCULATIONS
------------------------------------------------------------------------------
------------------------------------------------------------------------------
                   ___                                                        
                  /   \      - P O W E R E D   B Y -                         
                 /     \                                                     
                 |  |  |   _    _      __       _____    __    __             
                 |  |  |  | |  | |    /  \     |  _  \  |  |  /  |          
                  \  \/   | |  | |   /    \    | | | |  |  | /  /          
                 / \  \   | |__| |  /  /\  \   | |_| |  |  |/  /          
                |  |  |   |  __  | /  /__\  \  |    /   |      \           
                |  |  |   | |  | | |   __   |  |    \   |  |\   \          
                \     /   | |  | | |  |  |  |  | |\  \  |  | \   \       
                 \___/    |_|  |_| |__|  |__|  |_| \__\ |__|  \__/        
                                                                              
                      - O R C A' S   B I G   F R I E N D -                    
                                      &                                       
                       - I N T E G R A L  F E E D E R -                       
                                                                              
 v1 FN, 2020, v2 2021, v3 2022-2024                                           
------------------------------------------------------------------------------


----------------------
SHARK INTEGRAL PACKAGE
----------------------

Number of atoms                             ...     12
Number of basis functions                   ...     72
Number of shells                            ...     40
Maximum angular momentum                    ...      2
Integral batch strategy                     ... SHARK/LIBINT Hybrid
RI-J (if used) integral strategy            ... SPLIT-RIJ (Revised 2003 algorithm where possible)
Printlevel                                  ...      1
Contraction scheme used                     ... SEGMENTED contraction
Prescreening option                         ... SCHWARTZ
   Thresh                                   ... 2.500e-11
   Tcut                                     ... 2.500e-12
   Tpresel                                  ... 2.500e-12 
Coulomb Range Separation                    ... NOT USED
Exchange Range Separation                   ... NOT USED
Multipole approximations                    ... NOT USED
Finite Nucleus Model                        ... NOT USED
CABS basis                                  ... NOT available
Auxiliary Coulomb fitting basis             ... NOT available
Auxiliary J/K fitting basis                 ... NOT available
Auxiliary Correlation fitting basis         ... NOT available
Auxiliary 'external' fitting basis          ... NOT available

Checking pre-screening integrals            ... done (  0.0 sec) Dimension = 40
Check shell pair data                       ... done (  0.0 sec)
Shell pair information
Shell pair cut-off parameter TPreSel        ...   2.5e-12
Total number of shell pairs                 ...       820
Shell pairs after pre-screening             ...       654
Total number of primitive shell pairs       ...      4386
Primitive shell pairs kept                  ...      2167
          la=0 lb=0:    327 shell pairs
          la=1 lb=0:    181 shell pairs
          la=1 lb=1:     32 shell pairs
          la=2 lb=0:     81 shell pairs
          la=2 lb=1:     26 shell pairs
          la=2 lb=2:      7 shell pairs

Calculating one electron integrals          ... done (  0.0 sec)
Calculating Nuclear repulsion               ... done (  0.0 sec) ENN=    109.677917058675 Eh

Diagonalization of the overlap matrix:
Smallest eigenvalue                        ... 4.625e-02
Time for diagonalization                   ...    0.001 sec
Threshold for overlap eigenvalues          ... 1.000e-07
Number of eigenvalues below threshold      ... 0
Time for construction of square roots      ...    0.001 sec
Total time needed                          ...    0.004 sec

-------------------
DFT GRID GENERATION
-------------------

General Integration Accuracy     IntAcc      ... 4.388
Radial Grid Type                 RadialGrid  ... OptM3 with GC (2021)
Angular Grid (max. ang.)         AngularGrid ... 4 (Lebedev-302)
Angular grid pruning method      GridPruning ... 4 (adaptive)
Weight generation scheme         WeightScheme... mBecke (2022)
Basis function cutoff            BFCut       ... 1.0000e-11
Integration weight cutoff        WCut        ... 1.0000e-14
Partially contracted basis set               ... off
Rotationally invariant grid construction     ... off
Angular grids for H and He will be reduced by one unit

Total number of grid points                  ...    50899
Total number of batches                      ...      801
Average number of points per batch           ...       63
Average number of grid points per atom       ...     4242
Initializing property integral containers    ... done (  0.0 sec)

SHARK setup successfully completed in   0.3 seconds

Maximum memory used throughout the entire STARTUP-calculation: 17.2 MB
-------------------------------------------------------------------------------
                                 ORCA GUESS
                   Start orbitals & Density for SCF / CASSCF
-------------------------------------------------------------------------------

------------
SCF SETTINGS
------------
Hamiltonian:
 Ab initio Hamiltonian  Method          .... Hartree-Fock(GTOs)


General Settings:
 Integral files         IntName         .... frag
 Hartree-Fock type      HFTyp           .... RHF
 Total Charge           Charge          ....    0
 Multiplicity           Mult            ....    1
 Number of Electrons    NEL             ....   40
 Basis Dimension        Dim             ....   72
 Nuclear Repulsion      ENuc            ....    109.6779170587 Eh

Convergence Acceleration:
 AO-DIIS                CNVDIIS         .... on
   Start iteration      DIISMaxIt       ....    12
   Startup error        DIISStart       ....  0.200000
   # of expansion vecs  DIISMaxEq       ....     5
   Bias factor          DIISBfac        ....   1.050
   Max. coefficient     DIISMaxC        ....  10.000
 MO-DIIS                CNVKDIIS        .... off
 Trust-Rad. Augm. Hess. CNVTRAH         .... auto
   Auto Start mean grad. ratio tolernc. ....  1.125000
   Auto Start start iteration           ....    50
   Auto Start num. interpolation iter.  ....    10
   Max. Number of Micro iterations      ....    24
   Max. Number of Macro iterations      .... Maxiter - #DIIS iter
   Number of Davidson start vectors     ....     2
   Converg. threshold    (grad. norm)   ....   1.000e-05
   Grad. Scal. Fac. for Micro threshold ....   0.100
   Minimum threshold for Micro iter.    ....   1.000e-02
   NR start threshold (gradient norm)   ....   1.000e-04
   Initial trust radius                 ....   0.400
   Minimum AH scaling param. (alpha)    ....   1.000
   Maximum AH scaling param. (alpha)    .... 1000.000
   Quad. conv. algorithm                .... NR
   White noise on init. David. guess    .... on
   Maximum white noise                  ....   0.010
   Pseudo random numbers                .... off
   Inactive MOs                         .... canonical
   Orbital update algorithm             .... Taylor
   Preconditioner                       .... Diag
   Full preconditioner red. dimension   ....   250
 SOSCF                  CNVSOSCF        .... on
   Start iteration      SOSCFMaxIt      ....   150
   Startup grad/error   SOSCFStart      ....  0.003300
   Hessian update       SOSCFHessUp     .... L-BFGS
 Level Shifting         CNVShift        .... on
   Level shift para.    LevelShift      ....    0.2500
   Turn off err/grad.   ShiftErr        ....    0.0010
 Zerner damping         CNVZerner       .... off
 Static damping         CNVDamp         .... on
   Fraction old density DampFac         ....    0.7000
   Max. Damping (<1)    DampMax         ....    0.9800
   Min. Damping (>=0)   DampMin         ....    0.0000
   Turn off err/grad.   DampErr         ....    0.1000

SCF Procedure:
 Maximum # iterations   MaxIter         ....   125
 SCF integral mode      SCFMode         .... Direct
   Integral package                     .... SHARK and LIBINT hybrid scheme
 Reset frequency        DirectResetFreq ....    20
 Integral Threshold     Thresh          ....  2.500e-11 Eh
 Primitive CutOff       TCut            ....  2.500e-12 Eh

Convergence Tolerance:
 Convergence Check Mode ConvCheckMode   .... Total+1el-Energy
 Convergence forced     ConvForced      .... 0
 Energy Change          TolE            ....  1.000e-08 Eh
 1-El. energy change                    ....  1.000e-05 Eh
 Orbital Gradient       TolG            ....  1.000e-05
 Orbital Rotation angle TolX            ....  1.000e-05
 DIIS Error             TolErr          ....  5.000e-07

------------------------------
INITIAL GUESS: MODEL POTENTIAL
------------------------------
Loading Hartree-Fock densities                     ... done
Calculating cut-offs                               ... done
Initializing the effective Hamiltonian             ... done
Setting up the integral package (SHARK)            ... done
Starting the Coulomb interaction                   ... done (   0.0 sec)
Making the grid                                    ... done (   0.1 sec)
Mapping shells                                     ... done
Starting the XC term evaluation                    ... done (   0.0 sec)
Transforming the Hamiltonian                       ... done (   0.0 sec)
Diagonalizing the Hamiltonian                      ... done (   0.0 sec)
Back transforming the eigenvectors                 ... done (   0.0 sec)
Now organizing SCF variables                       ... done
                      ------------------
                      INITIAL GUESS DONE (   0.1 sec)
                      ------------------
             **** ENERGY FILE WAS UPDATED (frag.en.tmp) ****
Finished Guess after   0.2 sec
Maximum memory used throughout the entire GUESS-calculation: 7.2 MB

-------------------------------------------------------------------------------------------
                                      ORCA LEAN-SCF
                              memory conserving SCF solver
-------------------------------------------------------------------------------------------

----------------------------------------D-I-I-S--------------------------------------------
Iteration    Energy (Eh)           Delta-E    RMSDP     MaxDP     DIISErr   Damp  Time(sec)
-------------------------------------------------------------------------------------------
               ***  Starting incremental Fock matrix formation  ***
    1    -303.5567202071402448     0.00e+00  6.28e-03  7.22e-02  3.31e-01  0.700   0.1
    2    -303.7203178776370009    -1.64e-01  4.27e-03  4.95e-02  2.01e-01  0.700   0.1
                               ***Turning on AO-DIIS***
    3    -303.8087304193163618    -8.84e-02  1.67e-03  2.14e-02  1.12e-01  0.700   0.1
    4    -303.8621363055565325    -5.34e-02  1.01e-03  1.36e-02  7.57e-02  0.700   0.1
    5    -303.8974422427923514    -3.53e-02  2.35e-03  3.22e-02  5.38e-02  0.000   0.1
    6    -303.9762100297932079    -7.88e-02  1.66e-04  1.66e-03  3.37e-03  0.000   0.1
                              *** Initializing SOSCF ***
---------------------------------------S-O-S-C-F--------------------------------------
Iteration    Energy (Eh)           Delta-E    RMSDP     MaxDP     MaxGrad    Time(sec)
--------------------------------------------------------------------------------------
    7    -303.9762756637716734    -6.56e-05  1.05e-04  8.33e-04  1.14e-03     0.1
               *** Restarting incremental Fock matrix formation ***
    8    -303.9762884533511169    -1.28e-05  4.85e-05  5.31e-04  2.06e-04     0.1
    9    -303.9762898251004799    -1.37e-06  3.04e-05  2.47e-04  9.76e-05     0.1
   10    -303.9762900813453257    -2.56e-07  3.97e-06  4.56e-05  3.30e-05     0.1
   11    -303.9762900955807368    -1.42e-08  9.27e-07  1.01e-05  5.51e-06     0.1
   12    -303.9762900959693184    -3.89e-10  1.91e-07  2.29e-06  9.90e-07     0.1
                 **** Energy Check signals convergence ****

               *****************************************************
               *                     SUCCESS                       *
               *           SCF CONVERGED AFTER  12 CYCLES          *
               *****************************************************

             **** ENERGY FILE WAS UPDATED (frag.en.tmp) ****

----------------
TOTAL SCF ENERGY
----------------

Total Energy       :       -303.97629009596932 Eh           -8271.61537 eV

Components:
Nuclear Repulsion  :        109.67791705867545 Eh            2984.48785 eV
Electronic Energy  :       -413.65420715464478 Eh          -11256.10323 eV
One Electron Energy:       -637.30779307222565 Eh          -17342.02670 eV
Two Electron Energy:        223.65358591758087 Eh            6085.92348 eV

Virial components:
Potential Energy   :       -609.50597183666355 Eh          -16585.50068 eV
Kinetic Energy     :        305.52968174069423 Eh            8313.88531 eV
Virial Ratio       :          1.99491574227461

---------------
SCF CONVERGENCE
---------------

  Last Energy change         ...    3.8858e-10  Tolerance :   1.0000e-08
  Last MAX-Density change    ...    2.2942e-06  Tolerance :   1.0000e-07
  Last RMS-Density change    ...    1.9054e-07  Tolerance :   5.0000e-09
  Last DIIS Error            ...    1.1370e-03  Tolerance :   5.0000e-07
  Last Orbital Gradient      ...    9.9018e-07  Tolerance :   1.0000e-05
  Last Orbital Rotation      ...    1.1088e-06  Tolerance :   1.0000e-05


----------------
ORBITAL ENERGIES
----------------

  NO   OCC          E(Eh)            E(eV) 
   0   2.0000     -20.541647      -558.9666 
   1   2.0000     -20.536385      -558.8234 
   2   2.0000     -20.529781      -558.6437 
   3   2.0000     -20.522212      -558.4378 
   4   2.0000      -1.395316       -37.9685 
   5   2.0000      -1.390168       -37.8284 
   6   2.0000      -1.383308       -37.6417 
   7   2.0000      -1.376053       -37.4443 
   8   2.0000      -0.757896       -20.6234 
   9   2.0000      -0.752882       -20.4870 
  10   2.0000      -0.746796       -20.3214 
  11   2.0000      -0.738311       -20.0905 
  12   2.0000      -0.592497       -16.1227 
  13   2.0000      -0.587067       -15.9749 
  14   2.0000      -0.581163       -15.8143 
  15   2.0000      -0.570934       -15.5359 
  16   2.0000      -0.508898       -13.8478 
  17   2.0000      -0.503557       -13.7025 
  18   2.0000      -0.496824       -13.5193 
  19   2.0000      -0.488614       -13.2959 
  20   0.0000       0.207001         5.6328 
  21   0.0000       0.225389         6.1331 
  22   0.0000       0.240555         6.5458 
  23   0.0000       0.263583         7.1724 
  24   0.0000       0.309528         8.4227 
  25   0.0000       0.321963         8.7610 
  26   0.0000       0.341713         9.2985 
  27   0.0000       0.375403        10.2152 
  28   0.0000       1.044867        28.4323 
  29   0.0000       1.051206        28.6048 
  30   0.0000       1.057588        28.7784 
*Only the first 10 virtual orbitals were printed.

                    ********************************
                    * MULLIKEN POPULATION ANALYSIS *
                    ********************************

-----------------------
MULLIKEN ATOMIC CHARGES
-----------------------
   0 O :   -0.891776
   1 H :    0.448311
   2 H :    0.442976
   3 O :   -0.882119
   4 H :    0.444304
   5 H :    0.438249
   6 O :   -0.882235
   7 H :    0.439999
   8 H :    0.442318
   9 O :   -0.887575
  10 H :    0.443792
  11 H :    0.443755
Sum of atomic charges:   -0.0000000

--------------------------------
MULLIKEN REDUCED ORBITAL CHARGES
--------------------------------
  0 O s       :     3.846257  s :     3.846257
      pz      :     1.450443  p :     5.012213
      px      :     1.733231
      py      :     1.828539
      dz2     :     0.015187  d :     0.033306
      dxz     :     0.004244
      dyz     :     0.001242
      dx2y2   :     0.002624
      dxy     :     0.010008

  1 H s       :     0.551689  s :     0.551689

  2 H s       :     0.557024  s :     0.557024

  3 O s       :     3.847068  s :     3.847068
      pz      :     1.503040  p :     5.001180
      px      :     1.645185
      py      :     1.852956
      dz2     :     0.006779  d :     0.033871
      dxz     :     0.010961
      dyz     :     0.002642
      dx2y2   :     0.006574
      dxy     :     0.006914

  4 H s       :     0.555696  s :     0.555696

  5 H s       :     0.561751  s :     0.561751

  6 O s       :     3.848040  s :     3.848040
      pz      :     1.715146  p :     5.000326
      px      :     1.708461
      py      :     1.576720
      dz2     :     0.004616  d :     0.033869
      dxz     :     0.009672
      dyz     :     0.002822
      dx2y2   :     0.001825
      dxy     :     0.014933

  7 H s       :     0.560001  s :     0.560001

  8 H s       :     0.557682  s :     0.557682

  9 O s       :     3.846208  s :     3.846208
      pz      :     1.727833  p :     5.007805
      px      :     1.819560
      py      :     1.460412
      dz2     :     0.007285  d :     0.033563
      dxz     :     0.010478
      dyz     :     0.001753
      dx2y2   :     0.012357
      dxy     :     0.001689

 10 H s       :     0.556208  s :     0.556208

 11 H s       :     0.556245  s :     0.556245



                     *******************************
                     * LOEWDIN POPULATION ANALYSIS *
                     *******************************

----------------------
LOEWDIN ATOMIC CHARGES
----------------------
   0 O :   -0.627461
   1 H :    0.314356
   2 H :    0.312764
   3 O :   -0.623018
   4 H :    0.313563
   5 H :    0.309745
   6 O :   -0.622380
   7 H :    0.311100
   8 H :    0.311341
   9 O :   -0.625996
  10 H :    0.313029
  11 H :    0.312956

-------------------------------
LOEWDIN REDUCED ORBITAL CHARGES
-------------------------------
  0 O s       :     3.554878  s :     3.554878
      pz      :     1.456197  p :     5.030571
      px      :     1.742044
      py      :     1.832330
      dz2     :     0.020089  d :     0.042012
      dxz     :     0.005406
      dyz     :     0.001709
      dx2y2   :     0.002725
      dxy     :     0.012083

  1 H s       :     0.685644  s :     0.685644

  2 H s       :     0.687236  s :     0.687236

  3 O s       :     3.556724  s :     3.556724
      pz      :     1.509878  p :     5.023479
      px      :     1.659473
      py      :     1.854128
      dz2     :     0.009191  d :     0.042815
      dxz     :     0.014068
      dyz     :     0.003789
      dx2y2   :     0.007285
      dxy     :     0.008481

  4 H s       :     0.686437  s :     0.686437

  5 H s       :     0.690255  s :     0.690255

  6 O s       :     3.556590  s :     3.556590
      pz      :     1.719448  p :     5.022955
      px      :     1.723332
      py      :     1.580175
      dz2     :     0.005651  d :     0.042835
      dxz     :     0.011741
      dyz     :     0.004399
      dx2y2   :     0.001895
      dxy     :     0.019149

  7 H s       :     0.688900  s :     0.688900

  8 H s       :     0.688659  s :     0.688659

  9 O s       :     3.555924  s :     3.555924
      pz      :     1.734705  p :     5.027678
      px      :     1.824267
      py      :     1.468706
      dz2     :     0.009154  d :     0.042393
      dxz     :     0.012745
      dyz     :     0.002307
      dx2y2   :     0.016115
      dxy     :     0.002071

 10 H s       :     0.686971  s :     0.686971

 11 H s       :     0.687044  s :     0.687044



                      *****************************
                      * MAYER POPULATION ANALYSIS *
                      *****************************

  NA   - Mulliken gross atomic population
  ZA   - Total nuclear charge
  QA   - Mulliken gross atomic charge
  VA   - Mayer's total valence
  BVA  - Mayer's bonded valence
  FA   - Mayer's free valence

  ATOM       NA         ZA         QA         VA         BVA        FA
  0 O      8.8918     8.0000    -0.8918     1.5504     1.5504     0.0000
  1 H      0.5517     1.0000     0.4483     0.7645     0.7645     0.0000
  2 H      0.5570     1.0000     0.4430     0.7684     0.7684    -0.0000
  3 O      8.8821     8.0000    -0.8821     1.5589     1.5589     0.0000
  4 H      0.5557     1.0000     0.4443     0.7669     0.7669    -0.0000
  5 H      0.5618     1.0000     0.4382     0.7708     0.7708     0.0000
  6 O      8.8822     8.0000    -0.8822     1.5578     1.5578    -0.0000
  7 H      0.5600     1.0000     0.4400     0.7700     0.7700    -0.0000
  8 H      0.5577     1.0000     0.4423     0.7681     0.7681    -0.0000
  9 O      8.8876     8.0000    -0.8876     1.5536     1.5536     0.0000
 10 H      0.5562     1.0000     0.4438     0.7672     0.7672     0.0000
 11 H      0.5562     1.0000     0.4438     0.7672     0.7672    -0.0000

  Mayer bond orders larger than 0.100000
B(  0-O ,  1-H ) :   0.7714 B(  0-O ,  2-H ) :   0.7779 B(  3-O ,  4-H ) :   0.7764 
B(  3-O ,  5-H ) :   0.7802 B(  6-O ,  7-H ) :   0.7793 B(  6-O ,  8-H ) :   0.7759 
B(  9-O , 10-H ) :   0.7768 B(  9-O , 11-H ) :   0.7768 

-------
TIMINGS
-------

Total SCF time: 0 days 0 hours 0 min 1 sec 

Total time                  ....       1.113 sec
Sum of individual times     ....       1.063 sec  ( 95.6%)

SCF preparation             ....       0.038 sec  (  3.4%)
Fock matrix formation       ....       0.899 sec  ( 80.8%)
  Startup                   ....       0.011 sec  (  1.2% of F)
  Coulomb+Exchange Fock     ....       0.858 sec  ( 95.5% of F)
Diagonalization             ....       0.000 sec  (  0.0%)
Density matrix formation    ....       0.034 sec  (  3.0%)
Total Energy calculation    ....       0.008 sec  (  0.7%)
Population analysis         ....       0.012 sec  (  1.1%)
Orbital Transformation      ....       0.009 sec  (  0.8%)
Orbital Orthonormalization  ....       0.000 sec  (  0.0%)
DIIS solution               ....       0.044 sec  (  3.9%)
SOSCF solution              ....       0.021 sec  (  1.9%)
Finished LeanSCF after   1.1 sec

Maximum memory used throughout the entire LEANSCF-calculation: 8.1 MB

-------------------------   --------------------
FINAL SINGLE POINT ENERGY      -303.976290095969
-------------------------   --------------------

------------------------------------------------------------------------------
                         ORCA SCF GRADIENT CALCULATION
------------------------------------------------------------------------------

Nuc. rep. gradient        (SHARK) ... done (  0.0 sec)
HCore & Overlap gradient  (SHARK) ... done (  0.0 sec)
Two-electron gradient     (SHARK) ... done (  0.3 sec)

------------------
CARTESIAN GRADIENT
------------------

   1   O   :   -0.091039923    0.053622895    0.067704261
   2   H   :    0.010392961    0.011438277   -0.112738331
   3   H   :    0.081263203   -0.064236531    0.044557842
   4   O   :   -0.114613287   -0.006328647    0.045825881
   5   H   :    0.087492633    0.046282335    0.054882679
   6   H   :    0.028066984   -0.041649782   -0.101066149
   7   O   :    0.113193817    0.020127154    0.043929478
   8   H   :   -0.048155045    0.064484786   -0.079185993
   9   H   :   -0.066505932   -0.083878277    0.035946721
  10   O   :   -0.063274298    0.074720051   -0.076449587
  11   H   :   -0.003719875   -0.112985472   -0.006322959
  12   H   :    0.066898763    0.038403213    0.082916157

Difference to translation invariance:
           :   -0.0000000000   -0.0000000000   -0.0000000001

Difference to rotation invariance:
           :   -0.0000001238    0.0000000127   -0.0000001809

Norm of the Cartesian gradient     ...    0.4049151217
RMS gradient                       ...    0.0674858536
MAX gradient                       ...    0.1146132873

-------
TIMINGS
-------

Total SCF gradient time     ....        0.340 sec

Densities                   ....       0.000 sec  (  0.0%)
One electron gradient       ....       0.028 sec  (  8.2%)
Two electron gradient       ....       0.312 sec  ( 91.7%)

Maximum memory used throughout the entire SCFGRAD-calculation: 13.9 MB

------------------------------------------------------------------------------
                              ORCA PROPERTY CALCULATIONS
------------------------------------------------------------------------------

GBWName                                 ... frag.gbw
Number of atoms                         ...     12
Number of basis functions               ...     72
Max core memory                         ...   1024 MB

Electric properties:
Dipole moment                           ... YES
Quadrupole moment                       ...  NO
Static polarizability (Dipole/Dipole)   ...  NO
Static polarizability (Dipole/Quad.)    ...  NO
Static polarizability (Quad./Quad.)     ...  NO
Static polarizability (Velocity)        ...  NO

Atomic electric properties:
Dipole moment                           ...  NO
Quadrupole moment                       ...  NO
Static polarizability                   ...  NO

Choice of electric origin               ... Center of mass
Position of electric origin             ...    40.189034    87.666377    76.259881

General magnetic properties:
Magnetizability                         ...  NO

EPR properties:
g-Tensor (aka g-matrix)                 ...  NO
Zero-Field splitting spin-orbit         ...  NO
Zero-field splitting spin-spin          ...  NO
Hyperfine couplings                     ...  NO (   0 nuclei)
Quadrupole couplings                    ...  NO (   0 nuclei)
Contact density                         ...  NO (   0 nuclei)

NMR properties:
Chemical shifts                         ...  NO (   0 nuclei)
Spin-rotation constants                 ...  NO (   0 nuclei)
Spin-spin couplings                     ...  NO (   0 nuclei,    0 pairs)

Choice of magnetic origin               ... GIAO
Position of magnetic origin             ...     0.000000     0.000000     0.000000

Properties with geometric perturbations:
SCF Hessian                             ...  NO
IR spectrum                             ...  NO
VCD spectrum                            ...  NO
X-ray spectroscopy properties:
SCF XES/XAS/RIXS spectra                ...  NO


-------------
DIPOLE MOMENT
-------------

Method             : SCF
Type of density    : Electron Density
Multiplicity       :   1
Irrep              :   0
Energy             :  -303.9762900959693184 Eh
Relativity type    : 
Basis              : AO
                                X                 Y                 Z
Electronic contribution:      0.051816454      -0.088901220      -0.040067286
Nuclear contribution   :     -1.103610321       1.068900883       0.588237586
                        -----------------------------------------
Total Dipole Moment    :     -1.051793867       0.979999663       0.548170300
                        -----------------------------------------
Magnitude (a.u.)       :      1.538557882
Magnitude (Debye)      :      3.910703346



--------------------
Rotational spectrum 
--------------------
 
Rotational constants in cm-1:             0.063717             0.035447             0.032023 
Rotational constants in MHz :          1910.179626          1062.671355           960.025979 

Dipole components along the rotational axes: 
x,y,z [a.u.] :     0.852678    -0.046640     1.279815 
x,y,z [Debye]:     2.167334    -0.118550     3.253031 

 

Dipole moment calculation done in   0.0 sec 

Maximum memory used throughout the entire PROP-calculation: 2.6 MB

--------------------------------
SUGGESTED CITATIONS FOR THIS RUN
--------------------------------

Below you find a list of papers that are relevant to this ORCA run
We neither can nor want to force you to cite these papers, but we appreciate if you do
You receive ORCA, which is the product of decades of hard work by many enthusiastic individuals, for free
The only thing we kindly ask in return is that you cite our papers,
We deeply appreciate it, if you show your appreciation for ORCA by not just citing the generic ORCA reference.

Please note that relegating all ORCA citations to the supporting information does *not* help us.
SI sections are not indexed - citations you put there will not count into any citation statistics
But we need these citations in order to attract the funding resources that allow us to do what we are doing

Therefore, if you are a happy ORCA user, please consider citing a few of the papers listed below in the main body of your paper

In addition to the list printed below, the program has created the file frag.bibtex that contains the list in bibtex format
You can import this file easily into all common literature databanks and citation aid programs


List of essential papers. We consider these as the minimum necessary citations

  1. Neese,F.
     Software update: the ORCA program system, version 5.0
     WIRES Comput. Molec. Sci., 2022 12(1)e1606
     doi.org/10.1002/wcms.1606

List of papers to cite with high priority. The work reported in these papers was absolutely
necessary for this run to complete.
Our perspective: the developers of density functionals and basis sets usually get cited in chemistry papers
Good! But without the algorithms to do something with them, the functionals or basis sets would not do anything.
Hence, in our opinion, the algorithm design and method developments papers are equally worthy of getting cited

  1. Neese,F.
     The SHARK Integral Generation and Digestion System
     J. Comp. Chem., 2022  1-16
     doi.org/10.1002/jcc.26942

List of suggested additional citations. These are papers that are important in the 'surrounding' of 
of this run, or papers that preceded the highly important papers. If you like your results we are grateful for a citation.

  1. Neese,F.
     The ORCA program system
     WIRES Comput. Molec. Sci., 2012 2(1)73-78
     doi.org/10.1002/wcms.81
  2. Neese,F.
     Software update: the ORCA program system, version 4.0
     WIRES Comput. Molec. Sci., 2018 8(1)1-6
     doi.org/10.1002/wcms.1327
  3. Neese,F.; Wennmohs,F.; Becker,U.; Riplinger,C.
     The ORCA quantum chemistry program package
     J. Chem. Phys., 2020 152 Art. No. L224108
     doi.org/10.1063/5.0004608

List of optional additional citations

  1. Neese,F.
     Approximate second-order SCF convergence for spin unrestricted wavefunctions
     Chem. Phys. Lett., 2000 325(1-3)93-98
     doi.org/10.1016/s0009-2614(00)00662-x

Timings for individual modules:

Sum of individual times          ...        2.135 sec (=   0.036 min)
Startup calculation              ...        0.376 sec (=   0.006 min)  17.6 %
SCF iterations                   ...        1.319 sec (=   0.022 min)  61.8 %
Property calculations            ...        0.046 sec (=   0.001 min)   2.2 %
SCF Gradient evaluation          ...        0.394 sec (=   0.007 min)  18.4 %
                             ****ORCA TERMINATED NORMALLY****
TOTAL RUN TIME: 0 days 0 hours 0 minutes 2 seconds 306 msec
