
                                 *****************
                                 * O   R   C   A *
                                 *****************

                                            #,                                       
                                            ###                                      
                                            ####                                     
                                            #####                                    
                                            ######                                   
                                           ########,                                 
                                     ,,################,,,,,                         
                               ,,#################################,,                 
                          ,,##########################################,,             
                       ,#########################################, ''#####,          
                    ,#############################################,,   '####,        
                  ,##################################################,,,,####,       
                ,###########''''           ''''###############################       
              ,#####''   ,,,,##########,,,,          '''####'''          '####       
            ,##' ,,,,###########################,,,                        '##       
           ' ,,###''''                  '''############,,,                           
         ,,##''                                '''############,,,,        ,,,,,,###''
      ,#''                                            '''#######################'''  
     '                                                          ''''####''''         
             ,#######,   #######,   ,#######,      ##                                
            ,#'     '#,  ##    ##  ,#'     '#,    #''#        ,####,   ,####,        
            ##       ##  ##   ,#'  ##            #'  '#       #'       #'  '#        
            ##       ##  #######   ##           ,######,      #####,   #    #        
            '#,     ,#'  ##    ##  '#,     ,#' ,#      #,     #,   #   #,  ,#        
             '#######'   ##     ##  '#######'  #'      '#     '####' # '####'        



                #########################################################
                #                        -***-                          #
                #          Department of theory and spectroscopy        #
                #                                                       #
                #                      Frank Neese                      #
                #                                                       #
                #     Directorship, Architecture, Infrastructure        #
                #                    SHARK, DRIVERS                     #
                #        Core code/Algorithms in most modules           #
                #                                                       #
                #        Max Planck Institute fuer Kohlenforschung      #
                #                Kaiser Wilhelm Platz 1                 #
                #                 D-45470 Muelheim/Ruhr                 #
                #                      Germany                          #
                #                                                       #
                #                  All rights reserved                  #
                #                        -***-                          #
                #########################################################


                         Program Version 6.0.1  -  RELEASE   -


 With contributions from (in alphabetic order):
[Max-Planck-Institut fuer Kohlenforschung]                               
  Daniel Aravena         : Magnetic Suceptibility                        
  Michael Atanasov       : Ab Initio Ligand Field Theory (pilot matlab implementation)
  Alexander A. Auer      : GIAO ZORA, VPT2 properties, NMR spectrum      
  Ute Becker             : All parallelization in ORCA, NUMFREQ, NUMCALC 
  Giovanni Bistoni       : ED, misc. LED, open-shell LED, HFLD           
  Martin Brehm           : Molecular dynamics                            
  Dmytro Bykov           : pre 5.0 version of the SCF Hessian            
  Marcos Casanova-Páez   : Triplet and SCS-CIS(D). UHF-(DLPNO)-IP/EA/STEOM-CCSD. UHF-CVS-IP/STEOM-CCSD   
  Vijay G. Chilkuri      : MRCI spin determinant printing, contributions to CSF-ICE 
  Pauline Colinet        : FMM embedding                                 
  Dipayan Datta          : RHF DLPNO-CCSD density                        
  Achintya Kumar Dutta   : EOM-CC, STEOM-CC                              
  Nicolas Foglia         : Exact transition moments, OPA infrastructure, MCD improvements    
  Dmitry Ganyushin       : Spin-Orbit,Spin-Spin,Magnetic field MRCI      
  Miquel Garcia-Rates    : C-PCM and meta-GGA Hessian, CCSD/C-PCM, Gaussian charge scheme 
  Tiago L. C. Gouveia    : GS-ROHF, GS-ROCIS                             
  Yang Guo               : DLPNO-NEVPT2, F12-NEVPT2, CIM, IAO-localization        
  Andreas Hansen         : Spin unrestricted coupled pair/coupled cluster methods 
  Ingolf Harden          : AUTO-CI MPn and infrastructure                
  Benjamin Helmich-Paris : MC-RPA, TRAH-(SCF,CASSCF), AVAS, COSX integrals, SCF dyn. polar. 
  Lee Huntington         : MR-EOM, pCC                                   
  Robert Izsak           : Overlap fitted RIJCOSX, COSX-SCS-MP3, EOM     
  Riya Kayal             : Wick's Theorem for AUTO-CI, AUTO-CI UHF-CCSDT 
  Emily Kempfer          : AUTO-CI, RHF CISDT and CCSDT                  
  Christian Kollmar      : KDIIS, OOCD, Brueckner-CCSD(T), CCSD density, CASPT2, CASPT2-K, improved NEVPT2 
  Axel Koslowski         : Symmetry handling                             
  Simone Kossmann        : meta-GGA functionals, TD-DFT gradient, OOMP2, (MP2 Hessian; deprecated post 5.0) 
  Lucas Lang             : DCDCAS                                        
  Marvin Lechner         : AUTO-CI (C++ implementation), FIC-MRCC        
  Spencer Leger          : CASSCF response                               
  Dagmar Lenk            : GEPOL surface, SMD, ORCA-2-JSON               
  Dimitrios Liakos       : Extrapolation schemes; Compound Job, initial MDCI parallelization 
  Dimitrios Manganas     : Further ROCIS development; embedding schemes. LFT, Crystal Embedding 
  Dimitrios Pantazis     : SARC Basis sets                               
  Anastasios Papadopoulos: AUTO-CI, single reference methods and gradients 
  Taras Petrenko         : pre 6.0 DFT Hessian and TD-DFT gradient, (ASA, deprecated), ECA, 1-Electron XAS/XES, NRVS 
  Peter Pinski           : DLPNO-MP2, DLPNO-MP2 Gradient                 
  Christoph Reimann      : Effective Core Potentials                     
  Marius Retegan         : Local ZFS, SOC                                
  Christoph Riplinger    : Optimizer, TS searches, QM/MM, DLPNO-CCSD(T), (RO)-DLPNO pert. Triples 
  Michael Roemelt        : Original ROCIS implementation                 
  Masaaki Saitow         : Open-shell DLPNO-CCSD energy and density      
  Barbara Sandhoefer     : DKH picture change effects                    
  Kantharuban Sivalingam : CASSCF convergence/infrastructure, NEVPT2 and variants, FIC-MRCI 
  Bernardo de Souza      : ESD, SOC TD-DFT                               
  Georgi L. Stoychev     : AutoAux, RI-MP2 NMR, DLPNO-MP2 response, X2C  
  Van Anh Tran           : RI-MP2 g-tensors                              
  Willem Van den Heuvel  : Paramagnetic NMR                              
  Zikuan Wang            : NOTCH, Electric field optimization            
  Frank Wennmohs         : Technical directorship and infrastructure     
  Hang Xu                : AUTO-CI-Response properties                   
                                                                         
[FACCTs GmbH]                                                            
  Markus Bursch, Miquel Garcia-Rates, Christoph Riplinger, Bernardo de Souza, Georgi L. Stoychev 
                                                                 
  APM, Basis sets (HGBS, AHGBS, def-TZVP (Ac-Lr), def2-XVPD (La-Lu)), CI-OPT, improved COSX, DLPNO-Multilevel,           
  DOCKER, DRACO, updates on ESD, GOAT, IRC, LR-CPCM, MBIS, meta-GGA TD-DFT gradient, ML-optimized integration grids, 
  MM, NACMEs, nearIR, NEB, NEB-TS, NL-DFT gradient (VV10), 2- and 3-layer-ONIOM, interface openCOSMO-RS, QMMM,   
  Crystal-QMMM, SF, symmetry and pop. for TD-DFT, r2SCAN hybrids, SOLVATOR                                   
                                                                         
[Other institutions]                                                     
  V. Asgeirsson          : NEB                                           
  Christoph Bannwarth    : sTDA-DFT, sTD-DFT, PBEh-3c, B97-3c, D3        
  Sebastian Ehlert       : rSCAN, r2SCAN, r2SCAN-3c, D4, dhf basis sets  
  Marvin Friede          : D4 for Fr, Ra, Ac-Lr                          
  Lars Goerigk           : TD-DFT with DH, B97 family of functionals     
  Stefan Grimme          : VdW corrections, initial TS optimization, DFT functionals, gCP, sTDA/sTD-DF 
  Waldemar Hujo          : DFT-NL                                        
  H. Jonsson             : NEB                                           
  Holger Kruse           : gCP                                           
  Marcel Mueller         : wB97X-3c, vDZP basis set                      
  Hagen Neugebauer       : wr2SCAN                                       
  Tobias Risthaus        : range-separated hybrid DFT                    
  Lukas Wittmann         : regularized MP2, r2SCAN double-hybrids, wr2SCAN        
                                                                         
We gratefully acknowledge several colleagues who have allowed us to      
interface, adapt or use parts of their codes:                            
  Ed Valeev, F. Pavosevic, A. Kumar             : LibInt (2-el integral package), F12 methods 
  Garnet Chan, S. Sharma, J. Yang, R. Olivares  : DMRG                   
  Ulf Ekstrom                                   : XCFun DFT Library      
  Mihaly Kallay                                 : mrcc  (arbitrary order and MRCC methods)
  Frank Weinhold                                : gennbo (NPA and NBO analysis)           
  Simon Mueller                                 : openCOSMO-RS                            
  Christopher J. Cramer and Donald G. Truhlar   : smd solvation model                     
  S Lehtola, MJT Oliveira, MAL Marques          : LibXC Library                           
  Liviu Ungur et al                             : ANISO software                          


 Your calculation uses the libint2 library for the computation of 2-el integrals
 For citations please refer to: http://libint.valeyev.net

 Your ORCA version has been built with support for libXC version: 6.2.2
 For citations please refer to: https://libxc.gitlab.io

 This ORCA versions uses:
   CBLAS   interface :  Fast vector & matrix operations
   LAPACKE interface :  Fast linear algebra routines
   SCALAPACK package :  Parallel linear algebra routines
   Shared memory     :  Shared parallel matrices
   BLAS/LAPACK       :  OpenBLAS 0.3.27  USE64BITINT DYNAMIC_ARCH NO_AFFINITY SkylakeX SINGLE_THREADED
        Core in use  :  SkylakeX
   Copyright (c) 2011-2014, The OpenBLAS Project




***************************************
The coordinates will be read from file: ../cluster_990.xyz
***************************************


================================================================================

----- Orbital basis set information -----
Your calculation utilizes the basis: 6-31G*
   H-He, Li-Ne : W. J. Hehre, R. Ditchfield and J.A. Pople, J. Chem. Phys. 56, 2257 (1972).
                 Note: He and Ne are unpublished basis sets taken from the Gaussian program.
                 Note: Li and B from J. D. Dill and J. A. Pople, J. Chem. Phys. 62, 2921 (1975).
   Na - Ar     : M. M. Francl, W. J. Pietro, W. J. Hehre, J. S. Binkley, M. S. Gordon, 
                 D. J. DeFrees and J. A. Pople, J. Chem. Phys. 77, 3654 (1982).
   K - Zn      : V. A. Rassolov, J. A. Pople, M. A. Ratner, and T. L. Windus, J. Chem. Phys. 109, 1223 (1998).

================================================================================
                                        WARNINGS
                       Please study these warnings very carefully!
================================================================================

WARNING: Old DensityContainer found on disk!
         Will remove this file - 
         If you want to keep old densities, please start your calculation with a different basename. 


================================================================================
                                       INPUT FILE
================================================================================
NAME = supersys.inp
|  1> !HF 6-31G* EnGrad
|  2> %pal nprocs 1 end
|  3> *xyzfile 0 1 ../cluster_990.xyz
|  4> 
|  5>                          ****END OF INPUT****
================================================================================

                     *******************************
                     * Energy+Gradient Calculation *
                     *******************************

---------------------------------
CARTESIAN COORDINATES (ANGSTROEM)
---------------------------------
  O     21.315480   47.190770   40.872380
  H     20.962650   46.417370   40.676130
  H     22.110970   46.984870   41.165530
  O     24.105960   46.931730   41.509170
  H     24.522120   47.665620   41.731320
  H     24.523410   46.313990   41.962230
  O     20.352320   49.635740   40.010230
  H     19.543260   49.492020   40.303340
  H     20.790500   48.923920   40.260120
  O     21.789870   47.250100   37.482560
  H     21.141080   47.762630   37.204110
  H     21.671330   47.220170   38.346380
  O     19.103730   45.585350   40.484240
  H     18.382700   45.255440   40.120360
  H     18.823310   45.896640   41.249490
  O     22.252940   44.287780   39.871630
  H     22.684140   43.830800   40.476910
  H     22.815750   44.916330   39.649560
  O     21.996130   48.369110   43.541990
  H     21.977020   49.241280   43.533080
  H     21.464130   48.145570   42.887660

----------------------------
CARTESIAN COORDINATES (A.U.)
----------------------------
  NO LB      ZA    FRAG     MASS         X           Y           Z
   0 O     8.0000    0    15.999   40.280420   89.177631   77.237605
   1 H     1.0000    0     1.008   39.613668   87.716117   76.866746
   2 H     1.0000    0     1.008   41.783678   88.788537   77.791578
   3 O     8.0000    0    15.999   45.553663   88.688117   78.440963
   4 H     1.0000    0     1.008   46.340091   90.074968   78.860766
   5 H     1.0000    0     1.008   46.342529   87.520757   79.297123
   6 O     8.0000    0    15.999   38.460311   93.797955   75.608377
   7 H     1.0000    0     1.008   36.931409   93.526364   76.162275
   8 H     1.0000    0     1.008   39.288351   92.452810   76.080601
   9 O     8.0000    0    15.999   41.176887   89.289749   70.831773
  10 H     1.0000    0     1.008   39.950851   90.258290   70.305579
  11 H     1.0000    0     1.008   40.952879   89.233189   72.464156
  12 O     8.0000    0    15.999   36.100818   86.143827   76.504126
  13 H     1.0000    0     1.008   34.738269   85.520388   75.816493
  14 H     1.0000    0     1.008   35.570901   86.732080   77.950239
  15 O     8.0000    0    15.999   42.051962   83.691775   75.346461
  16 H     1.0000    0     1.008   42.866812   82.828208   76.490275
  17 H     1.0000    0     1.008   43.115519   84.879563   74.926810
  18 O     8.0000    0    15.999   41.566662   91.404371   82.282436
  19 H     1.0000    0     1.008   41.530549   93.052534   82.265599
  20 H     1.0000    0     1.008   40.561327   90.981942   81.045932

--------------------------------
INTERNAL COORDINATES (ANGSTROEM)
--------------------------------
 O      0   0   0     0.000000000000     0.00000000     0.00000000
 H      1   0   0     0.872439471482     0.00000000     0.00000000
 H      1   2   0     0.872431127712   103.59872274     0.00000000
 O      3   1   2     2.025067260439   164.04508453   134.49752923
 H      4   3   1     0.872430111929   119.41048032    51.16069882
 H      4   3   1     0.872427976225   125.31625843   188.06283548
 O      1   2   3     2.765656903703   124.94050107   163.91954266
 H      7   1   2     0.872437386922    94.16296827    53.43396732
 H      7   1   2     0.872430190273     9.76862677   218.60673426
 O      9   7   8     3.393413229022   108.41619438   115.19435551
 H     10   9   7     0.872439033687    75.66802933   340.40737457
 H     10   9   7     0.872429096775    33.53678511   194.84682685
 O      2   1   3     2.045644792944   138.51760024   155.95761940
 H     13   2   1     0.872429666735   160.72623553   104.87007073
 H     13   2   1     0.872435901944    93.70851241   310.81868034
 O      2   1   3     2.616719721751   126.24180712   329.77871731
 H     16   2   1     0.872426523439   117.17456234    76.98324549
 H     16   2   1     0.872436406565    79.04835924   337.20315741
 O      3   1   2     2.752611620770    97.66454154   232.09709776
 H     19   3   1     0.872424832923   119.65867956   292.19524676
 H     19   3   1     0.872434456277    41.32939881     8.44035756

---------------------------
INTERNAL COORDINATES (A.U.)
---------------------------
 O      0   0   0     0.000000000000     0.00000000     0.00000000
 H      1   0   0     1.648671669524     0.00000000     0.00000000
 H      1   2   0     1.648655902083   103.59872274     0.00000000
 O      3   1   2     3.826822524999   164.04508453   134.49752923
 H      4   3   1     1.648653982532   119.41048032    51.16069882
 H      4   3   1     1.648649946636   125.31625843   188.06283548
 O      1   2   3     5.226334128387   124.94050107   163.91954266
 H      7   1   2     1.648667730277    94.16296827    53.43396732
 H      7   1   2     1.648654130581     9.76862677   218.60673426
 O      9   7   8     6.412621662077   108.41619438   115.19435551
 H     10   9   7     1.648670842211    75.66802933   340.40737457
 H     10   9   7     1.648652064169    33.53678511   194.84682685
 O      2   1   3     3.865708425947   138.51760024   155.95761940
 H     13   2   1     1.648653141238   160.72623553   104.87007073
 H     13   2   1     1.648664924074    93.70851241   310.81868034
 O      2   1   3     4.944883643340   126.24180712   329.77871731
 H     16   2   1     1.648647201269   117.17456234    76.98324549
 H     16   2   1     1.648665877670    79.04835924   337.20315741
 O      3   1   2     5.201682116305    97.66454154   232.09709776
 H     19   3   1     1.648644006656   119.65867956   292.19524676
 H     19   3   1     1.648662192161    41.32939881     8.44035756

---------------------
BASIS SET INFORMATION
---------------------
There are 2 groups of distinct atoms

 Group   1 Type O   : 10s4p1d contracted to 3s2p1d pattern {631/31/1}
 Group   2 Type H   : 4s contracted to 2s pattern {31}

Atom   0O    basis set group =>   1
Atom   1H    basis set group =>   2
Atom   2H    basis set group =>   2
Atom   3O    basis set group =>   1
Atom   4H    basis set group =>   2
Atom   5H    basis set group =>   2
Atom   6O    basis set group =>   1
Atom   7H    basis set group =>   2
Atom   8H    basis set group =>   2
Atom   9O    basis set group =>   1
Atom  10H    basis set group =>   2
Atom  11H    basis set group =>   2
Atom  12O    basis set group =>   1
Atom  13H    basis set group =>   2
Atom  14H    basis set group =>   2
Atom  15O    basis set group =>   1
Atom  16H    basis set group =>   2
Atom  17H    basis set group =>   2
Atom  18O    basis set group =>   1
Atom  19H    basis set group =>   2
Atom  20H    basis set group =>   2

Checking for AutoStart:
The File: supersys.gbw exists
Trying to determine its content:
     ... Fine, the file contains calculation information
     ... Fine, the calculation information was read
     ... Fine, the file contains a basis set
     ... Fine, the basis set was read
     ... Fine, the file contains a geometry
     ... Fine, the geometry was read
     ... Fine, the file contains a set of orbitals
     ... Fine, the orbitals can be read
     => possible old guess file was deleted
     => GBW file was renamed to GES file
     => GES file is set as startup file
     => Guess is set to MORead
     ... now leaving AutoStart

------------------------------------------------------------------------------
                             ORCA STARTUP CALCULATIONS
------------------------------------------------------------------------------
------------------------------------------------------------------------------
                   ___                                                        
                  /   \      - P O W E R E D   B Y -                         
                 /     \                                                     
                 |  |  |   _    _      __       _____    __    __             
                 |  |  |  | |  | |    /  \     |  _  \  |  |  /  |          
                  \  \/   | |  | |   /    \    | | | |  |  | /  /          
                 / \  \   | |__| |  /  /\  \   | |_| |  |  |/  /          
                |  |  |   |  __  | /  /__\  \  |    /   |      \           
                |  |  |   | |  | | |   __   |  |    \   |  |\   \          
                \     /   | |  | | |  |  |  |  | |\  \  |  | \   \       
                 \___/    |_|  |_| |__|  |__|  |_| \__\ |__|  \__/        
                                                                              
                      - O R C A' S   B I G   F R I E N D -                    
                                      &                                       
                       - I N T E G R A L  F E E D E R -                       
                                                                              
 v1 FN, 2020, v2 2021, v3 2022-2024                                           
------------------------------------------------------------------------------


----------------------
SHARK INTEGRAL PACKAGE
----------------------

Number of atoms                             ...     21
Number of basis functions                   ...    126
Number of shells                            ...     70
Maximum angular momentum                    ...      2
Integral batch strategy                     ... SHARK/LIBINT Hybrid
RI-J (if used) integral strategy            ... SPLIT-RIJ (Revised 2003 algorithm where possible)
Printlevel                                  ...      1
Contraction scheme used                     ... SEGMENTED contraction
Prescreening option                         ... SCHWARTZ
   Thresh                                   ... 2.500e-11
   Tcut                                     ... 2.500e-12
   Tpresel                                  ... 2.500e-12 
Coulomb Range Separation                    ... NOT USED
Exchange Range Separation                   ... NOT USED
Multipole approximations                    ... NOT USED
Finite Nucleus Model                        ... NOT USED
CABS basis                                  ... NOT available
Auxiliary Coulomb fitting basis             ... NOT available
Auxiliary J/K fitting basis                 ... NOT available
Auxiliary Correlation fitting basis         ... NOT available
Auxiliary 'external' fitting basis          ... NOT available

Checking pre-screening integrals            ... done (  0.0 sec) Dimension = 70
Check shell pair data                       ... done (  0.0 sec)
Shell pair information
Shell pair cut-off parameter TPreSel        ...   2.5e-12
Total number of shell pairs                 ...      2485
Shell pairs after pre-screening             ...      2097
Total number of primitive shell pairs       ...     13230
Primitive shell pairs kept                  ...      6493
          la=0 lb=0:   1033 shell pairs
          la=1 lb=0:    589 shell pairs
          la=1 lb=1:     95 shell pairs
          la=2 lb=0:    274 shell pairs
          la=2 lb=1:     84 shell pairs
          la=2 lb=2:     22 shell pairs

Calculating one electron integrals          ... done (  0.0 sec)
Calculating Nuclear repulsion               ... done (  0.0 sec) ENN=    358.827623361702 Eh

Diagonalization of the overlap matrix:
Smallest eigenvalue                        ... 2.734e-02
Time for diagonalization                   ...    0.002 sec
Threshold for overlap eigenvalues          ... 1.000e-07
Number of eigenvalues below threshold      ... 0
Time for construction of square roots      ...    0.002 sec
Total time needed                          ...    0.006 sec

-------------------
DFT GRID GENERATION
-------------------

General Integration Accuracy     IntAcc      ... 4.388
Radial Grid Type                 RadialGrid  ... OptM3 with GC (2021)
Angular Grid (max. ang.)         AngularGrid ... 4 (Lebedev-302)
Angular grid pruning method      GridPruning ... 4 (adaptive)
Weight generation scheme         WeightScheme... mBecke (2022)
Basis function cutoff            BFCut       ... 1.0000e-11
Integration weight cutoff        WCut        ... 1.0000e-14
Partially contracted basis set               ... off
Rotationally invariant grid construction     ... off
Angular grids for H and He will be reduced by one unit

Total number of grid points                  ...    88359
Total number of batches                      ...     1390
Average number of points per batch           ...       63
Average number of grid points per atom       ...     4208
Initializing property integral containers    ... done (  0.0 sec)

SHARK setup successfully completed in   0.8 seconds

Maximum memory used throughout the entire STARTUP-calculation: 30.7 MB
-------------------------------------------------------------------------------
                                 ORCA GUESS
                   Start orbitals & Density for SCF / CASSCF
-------------------------------------------------------------------------------

------------
SCF SETTINGS
------------
Hamiltonian:
 Ab initio Hamiltonian  Method          .... Hartree-Fock(GTOs)


General Settings:
 Integral files         IntName         .... supersys
 Hartree-Fock type      HFTyp           .... RHF
 Total Charge           Charge          ....    0
 Multiplicity           Mult            ....    1
 Number of Electrons    NEL             ....   70
 Basis Dimension        Dim             ....  126
 Nuclear Repulsion      ENuc            ....    358.8276233617 Eh

Convergence Acceleration:
 AO-DIIS                CNVDIIS         .... on
   Start iteration      DIISMaxIt       ....    12
   Startup error        DIISStart       ....  0.200000
   # of expansion vecs  DIISMaxEq       ....     5
   Bias factor          DIISBfac        ....   1.050
   Max. coefficient     DIISMaxC        ....  10.000
 MO-DIIS                CNVKDIIS        .... off
 Trust-Rad. Augm. Hess. CNVTRAH         .... auto
   Auto Start mean grad. ratio tolernc. ....  1.125000
   Auto Start start iteration           ....     1
   Auto Start num. interpolation iter.  ....    10
   Max. Number of Micro iterations      ....    24
   Max. Number of Macro iterations      .... Maxiter - #DIIS iter
   Number of Davidson start vectors     ....     2
   Converg. threshold    (grad. norm)   ....   1.000e-05
   Grad. Scal. Fac. for Micro threshold ....   0.100
   Minimum threshold for Micro iter.    ....   1.000e-02
   NR start threshold (gradient norm)   ....   1.000e-04
   Initial trust radius                 ....   0.400
   Minimum AH scaling param. (alpha)    ....   1.000
   Maximum AH scaling param. (alpha)    .... 1000.000
   Quad. conv. algorithm                .... NR
   White noise on init. David. guess    .... on
   Maximum white noise                  ....   0.010
   Pseudo random numbers                .... off
   Inactive MOs                         .... canonical
   Orbital update algorithm             .... Taylor
   Preconditioner                       .... Diag
   Full preconditioner red. dimension   ....   250
 SOSCF                  CNVSOSCF        .... on
   Start iteration      SOSCFMaxIt      ....   150
   Startup grad/error   SOSCFStart      ....  0.003300
   Hessian update       SOSCFHessUp     .... L-BFGS
 Level Shifting         CNVShift        .... on
   Level shift para.    LevelShift      ....    0.2500
   Turn off err/grad.   ShiftErr        ....    0.0010
 Zerner damping         CNVZerner       .... off
 Static damping         CNVDamp         .... on
   Fraction old density DampFac         ....    0.7000
   Max. Damping (<1)    DampMax         ....    0.9800
   Min. Damping (>=0)   DampMin         ....    0.0000
   Turn off err/grad.   DampErr         ....    0.1000

SCF Procedure:
 Maximum # iterations   MaxIter         ....   125
 SCF integral mode      SCFMode         .... Direct
   Integral package                     .... SHARK and LIBINT hybrid scheme
 Reset frequency        DirectResetFreq ....    20
 Integral Threshold     Thresh          ....  2.500e-11 Eh
 Primitive CutOff       TCut            ....  2.500e-12 Eh

Convergence Tolerance:
 Convergence Check Mode ConvCheckMode   .... Total+1el-Energy
 Convergence forced     ConvForced      .... 0
 Energy Change          TolE            ....  1.000e-08 Eh
 1-El. energy change                    ....  1.000e-05 Eh
 Orbital Gradient       TolG            ....  1.000e-05
 Orbital Rotation angle TolX            ....  1.000e-05
 DIIS Error             TolErr          ....  5.000e-07

---------------------
INITIAL GUESS: MOREAD
---------------------
Guess MOs are being read from file: supersys.ges
Input Geometry matches current geometry (good)
Input basis set matches current basis set (good)
Occupation numbers will be reassigned to an Aufbau configuration
MOs were renormalized
MOs were reorthogonalized (Cholesky)
                      ------------------
                      INITIAL GUESS DONE (   0.0 sec)
                      ------------------
             **** ENERGY FILE WAS UPDATED (supersys.en.tmp) ****
Finished Guess after   0.1 sec
Maximum memory used throughout the entire GUESS-calculation: 7.2 MB

-------------------------------------------------------------------------------------------
                                      ORCA LEAN-SCF
                              memory conserving SCF solver
-------------------------------------------------------------------------------------------

----------------------------------------D-I-I-S--------------------------------------------
Iteration    Energy (Eh)           Delta-E    RMSDP     MaxDP     DIISErr   Damp  Time(sec)
-------------------------------------------------------------------------------------------
               ***  Starting incremental Fock matrix formation  ***
                              *** Initializing SOSCF ***
---------------------------------------S-O-S-C-F--------------------------------------
Iteration    Energy (Eh)           Delta-E    RMSDP     MaxDP     MaxGrad    Time(sec)
--------------------------------------------------------------------------------------
    1    -531.9983407189826039     0.00e+00  7.36e-07  1.45e-05  8.90e-07     0.7
               *** Restarting incremental Fock matrix formation ***
    2    -531.9983407202258832    -1.24e-09  3.13e-07  6.80e-06  2.83e-06     0.7
    3    -531.9983407197706811     4.55e-10  1.04e-07  2.08e-06  1.54e-06     0.3
                 **** Energy Check signals convergence ****

               *****************************************************
               *                     SUCCESS                       *
               *           SCF CONVERGED AFTER   3 CYCLES          *
               *****************************************************

             **** ENERGY FILE WAS UPDATED (supersys.en.tmp) ****

----------------
TOTAL SCF ENERGY
----------------

Total Energy       :       -531.99834071977068 Eh          -14476.41082 eV

Components:
Nuclear Repulsion  :        358.82762336170231 Eh            9764.19603 eV
Electronic Energy  :       -890.82596408147299 Eh          -24240.60685 eV
One Electron Energy:      -1448.75333799332338 Eh          -39422.58253 eV
Two Electron Energy:        557.92737391185040 Eh           15181.97568 eV

Virial components:
Potential Energy   :      -1066.69149587793845 Eh          -29026.15126 eV
Kinetic Energy     :        534.69315515816777 Eh           14549.74045 eV
Virial Ratio       :          1.99496007305798

---------------
SCF CONVERGENCE
---------------

  Last Energy change         ...   -4.5520e-10  Tolerance :   1.0000e-08
  Last MAX-Density change    ...    2.0817e-06  Tolerance :   1.0000e-07
  Last RMS-Density change    ...    1.0380e-07  Tolerance :   5.0000e-09
  Last DIIS Error            ...    2.1151e-05  Tolerance :   5.0000e-07
  Last Orbital Gradient      ...    1.5422e-06  Tolerance :   1.0000e-05
  Last Orbital Rotation      ...    6.0258e-07  Tolerance :   1.0000e-05


----------------
ORBITAL ENERGIES
----------------

  NO   OCC          E(Eh)            E(eV) 
   0   2.0000     -20.569659      -559.7289 
   1   2.0000     -20.556186      -559.3622 
   2   2.0000     -20.543701      -559.0225 
   3   2.0000     -20.540019      -558.9223 
   4   2.0000     -20.529628      -558.6396 
   5   2.0000     -20.509207      -558.0839 
   6   2.0000     -20.508055      -558.0526 
   7   2.0000      -1.422885       -38.7187 
   8   2.0000      -1.411816       -38.4175 
   9   2.0000      -1.398632       -38.0587 
  10   2.0000      -1.392767       -37.8991 
  11   2.0000      -1.383131       -37.6369 
  12   2.0000      -1.363386       -37.0996 
  13   2.0000      -1.362631       -37.0791 
  14   2.0000      -0.785242       -21.3675 
  15   2.0000      -0.781561       -21.2674 
  16   2.0000      -0.761406       -20.7189 
  17   2.0000      -0.755576       -20.5603 
  18   2.0000      -0.743666       -20.2362 
  19   2.0000      -0.733616       -19.9627 
  20   2.0000      -0.725833       -19.7509 
  21   2.0000      -0.633897       -17.2492 
  22   2.0000      -0.610985       -16.6258 
  23   2.0000      -0.604421       -16.4471 
  24   2.0000      -0.588531       -16.0147 
  25   2.0000      -0.583166       -15.8687 
  26   2.0000      -0.562878       -15.3167 
  27   2.0000      -0.553347       -15.0573 
  28   2.0000      -0.537622       -14.6294 
  29   2.0000      -0.523497       -14.2451 
  30   2.0000      -0.515291       -14.0218 
  31   2.0000      -0.505137       -13.7455 
  32   2.0000      -0.496051       -13.4982 
  33   2.0000      -0.479164       -13.0387 
  34   2.0000      -0.476708       -12.9719 
  35   0.0000       0.179137         4.8746 
  36   0.0000       0.214233         5.8296 
  37   0.0000       0.240281         6.5384 
  38   0.0000       0.246609         6.7106 
  39   0.0000       0.274016         7.4563 
  40   0.0000       0.288362         7.8467 
  41   0.0000       0.311966         8.4890 
  42   0.0000       0.317261         8.6331 
  43   0.0000       0.327294         8.9061 
  44   0.0000       0.350544         9.5388 
  45   0.0000       0.398165        10.8346 
*Only the first 10 virtual orbitals were printed.

                    ********************************
                    * MULLIKEN POPULATION ANALYSIS *
                    ********************************

-----------------------
MULLIKEN ATOMIC CHARGES
-----------------------
   0 O :   -1.003858
   1 H :    0.511273
   2 H :    0.507482
   3 O :   -0.896895
   4 H :    0.462342
   5 H :    0.452545
   6 O :   -0.950861
   7 H :    0.428346
   8 H :    0.505870
   9 O :   -0.913488
  10 H :    0.444314
  11 H :    0.454377
  12 O :   -0.892435
  13 H :    0.454923
  14 H :    0.446655
  15 O :   -0.889225
  16 H :    0.440771
  17 H :    0.453424
  18 O :   -0.922105
  19 H :    0.441925
  20 H :    0.464622
Sum of atomic charges:    0.0000000

--------------------------------
MULLIKEN REDUCED ORBITAL CHARGES
--------------------------------
  0 O s       :     3.871324  s :     3.871324
      pz      :     1.898466  p :     5.102263
      px      :     1.551847
      py      :     1.651950
      dz2     :     0.004191  d :     0.030270
      dxz     :     0.003002
      dyz     :     0.003233
      dx2y2   :     0.011818
      dxy     :     0.008026

  1 H s       :     0.488727  s :     0.488727

  2 H s       :     0.492518  s :     0.492518

  3 O s       :     3.840848  s :     3.840848
      pz      :     1.851246  p :     5.024580
      px      :     1.792425
      py      :     1.380909
      dz2     :     0.002902  d :     0.031467
      dxz     :     0.006445
      dyz     :     0.008232
      dx2y2   :     0.000731
      dxy     :     0.013157

  4 H s       :     0.537658  s :     0.537658

  5 H s       :     0.547455  s :     0.547455

  6 O s       :     3.854688  s :     3.854688
      pz      :     1.915137  p :     5.063476
      px      :     1.420795
      py      :     1.727545
      dz2     :     0.003444  d :     0.032698
      dxz     :     0.006243
      dyz     :     0.005462
      dx2y2   :     0.009613
      dxy     :     0.007935

  7 H s       :     0.571654  s :     0.571654

  8 H s       :     0.494130  s :     0.494130

  9 O s       :     3.848382  s :     3.848382
      pz      :     1.467041  p :     5.032286
      px      :     1.735285
      py      :     1.829960
      dz2     :     0.015009  d :     0.032820
      dxz     :     0.004259
      dyz     :     0.001172
      dx2y2   :     0.002564
      dxy     :     0.009816

 10 H s       :     0.555686  s :     0.555686

 11 H s       :     0.545623  s :     0.545623

 12 O s       :     3.845081  s :     3.845081
      pz      :     1.511253  p :     5.014621
      px      :     1.645402
      py      :     1.857967
      dz2     :     0.006780  d :     0.032733
      dxz     :     0.010565
      dyz     :     0.002673
      dx2y2   :     0.006029
      dxy     :     0.006687

 13 H s       :     0.545077  s :     0.545077

 14 H s       :     0.553345  s :     0.553345

 15 O s       :     3.850482  s :     3.850482
      pz      :     1.712690  p :     5.004999
      px      :     1.707392
      py      :     1.584917
      dz2     :     0.004709  d :     0.033744
      dxz     :     0.009581
      dyz     :     0.002905
      dx2y2   :     0.001800
      dxy     :     0.014749

 16 H s       :     0.559229  s :     0.559229

 17 H s       :     0.546576  s :     0.546576

 18 O s       :     3.851988  s :     3.851988
      pz      :     1.751316  p :     5.037161
      px      :     1.822124
      py      :     1.463720
      dz2     :     0.007105  d :     0.032956
      dxz     :     0.010274
      dyz     :     0.001716
      dx2y2   :     0.012251
      dxy     :     0.001611

 19 H s       :     0.558075  s :     0.558075

 20 H s       :     0.535378  s :     0.535378



                     *******************************
                     * LOEWDIN POPULATION ANALYSIS *
                     *******************************

----------------------
LOEWDIN ATOMIC CHARGES
----------------------
   0 O :   -0.620767
   1 H :    0.317601
   2 H :    0.310788
   3 O :   -0.608837
   4 H :    0.323988
   5 H :    0.317790
   6 O :   -0.647610
   7 H :    0.307687
   8 H :    0.300795
   9 O :   -0.634597
  10 H :    0.314241
  11 H :    0.308014
  12 O :   -0.611297
  13 H :    0.318832
  14 H :    0.314637
  15 O :   -0.620534
  16 H :    0.311550
  17 H :    0.314870
  18 O :   -0.637485
  19 H :    0.313238
  20 H :    0.307098

-------------------------------
LOEWDIN REDUCED ORBITAL CHARGES
-------------------------------
  0 O s       :     3.530607  s :     3.530607
      pz      :     1.891559  p :     5.053569
      px      :     1.526715
      py      :     1.635295
      dz2     :     0.004650  d :     0.036591
      dxz     :     0.003670
      dyz     :     0.003796
      dx2y2   :     0.014532
      dxy     :     0.009943

  1 H s       :     0.682399  s :     0.682399

  2 H s       :     0.689212  s :     0.689212

  3 O s       :     3.545613  s :     3.545613
      pz      :     1.857341  p :     5.023411
      px      :     1.790237
      py      :     1.375833
      dz2     :     0.003452  d :     0.039813
      dxz     :     0.006876
      dyz     :     0.010785
      dx2y2   :     0.001645
      dxy     :     0.017056

  4 H s       :     0.676012  s :     0.676012

  5 H s       :     0.682210  s :     0.682210

  6 O s       :     3.544323  s :     3.544323
      pz      :     1.918262  p :     5.062951
      px      :     1.424799
      py      :     1.719890
      dz2     :     0.003968  d :     0.040337
      dxz     :     0.007879
      dyz     :     0.005648
      dx2y2   :     0.012709
      dxy     :     0.010133

  7 H s       :     0.692313  s :     0.692313

  8 H s       :     0.699205  s :     0.699205

  9 O s       :     3.550670  s :     3.550670
      pz      :     1.466153  p :     5.042865
      px      :     1.743247
      py      :     1.833466
      dz2     :     0.019557  d :     0.041062
      dxz     :     0.005363
      dyz     :     0.001628
      dx2y2   :     0.002657
      dxy     :     0.011857

 10 H s       :     0.685759  s :     0.685759

 11 H s       :     0.691986  s :     0.691986

 12 O s       :     3.550362  s :     3.550362
      pz      :     1.514432  p :     5.019441
      px      :     1.650088
      py      :     1.854921
      dz2     :     0.009150  d :     0.041494
      dxz     :     0.013507
      dyz     :     0.003786
      dx2y2   :     0.006766
      dxy     :     0.008286

 13 H s       :     0.681168  s :     0.681168

 14 H s       :     0.685363  s :     0.685363

 15 O s       :     3.555701  s :     3.555701
      pz      :     1.717087  p :     5.022372
      px      :     1.722247
      py      :     1.583038
      dz2     :     0.005662  d :     0.042461
      dxz     :     0.011635
      dyz     :     0.004503
      dx2y2   :     0.001869
      dxy     :     0.018792

 16 H s       :     0.688450  s :     0.688450

 17 H s       :     0.685130  s :     0.685130

 18 O s       :     3.551239  s :     3.551239
      pz      :     1.748397  p :     5.045191
      px      :     1.826513
      py      :     1.470281
      dz2     :     0.008843  d :     0.041055
      dxz     :     0.012119
      dyz     :     0.002226
      dx2y2   :     0.015916
      dxy     :     0.001951

 19 H s       :     0.686762  s :     0.686762

 20 H s       :     0.692902  s :     0.692902



                      *****************************
                      * MAYER POPULATION ANALYSIS *
                      *****************************

  NA   - Mulliken gross atomic population
  ZA   - Total nuclear charge
  QA   - Mulliken gross atomic charge
  VA   - Mayer's total valence
  BVA  - Mayer's bonded valence
  FA   - Mayer's free valence

  ATOM       NA         ZA         QA         VA         BVA        FA
  0 O      9.0039     8.0000    -1.0039     1.4981     1.4981     0.0000
  1 H      0.4887     1.0000     0.5113     0.7272     0.7272     0.0000
  2 H      0.4925     1.0000     0.5075     0.7315     0.7315     0.0000
  3 O      8.8969     8.0000    -0.8969     1.5760     1.5760    -0.0000
  4 H      0.5377     1.0000     0.4623     0.7564     0.7564     0.0000
  5 H      0.5475     1.0000     0.4525     0.7612     0.7612     0.0000
  6 O      8.9509     8.0000    -0.9509     1.4942     1.4942     0.0000
  7 H      0.5717     1.0000     0.4283     0.7829     0.7829     0.0000
  8 H      0.4941     1.0000     0.5059     0.7308     0.7308     0.0000
  9 O      8.9135     8.0000    -0.9135     1.5291     1.5291     0.0000
 10 H      0.5557     1.0000     0.4443     0.7695     0.7695    -0.0000
 11 H      0.5456     1.0000     0.4544     0.7751     0.7751     0.0000
 12 O      8.8924     8.0000    -0.8924     1.5677     1.5677     0.0000
 13 H      0.5451     1.0000     0.4549     0.7607     0.7607    -0.0000
 14 H      0.5533     1.0000     0.4467     0.7648     0.7648    -0.0000
 15 O      8.8892     8.0000    -0.8892     1.5624     1.5624    -0.0000
 16 H      0.5592     1.0000     0.4408     0.7698     0.7698    -0.0000
 17 H      0.5466     1.0000     0.4534     0.7639     0.7639    -0.0000
 18 O      8.9221     8.0000    -0.9221     1.5237     1.5237    -0.0000
 19 H      0.5581     1.0000     0.4419     0.7711     0.7711    -0.0000
 20 H      0.5354     1.0000     0.4646     0.7681     0.7681    -0.0000

  Mayer bond orders larger than 0.100000
B(  0-O ,  1-H ) :   0.6876 B(  0-O ,  2-H ) :   0.6855 B(  3-O ,  4-H ) :   0.7605 
B(  3-O ,  5-H ) :   0.7685 B(  6-O ,  7-H ) :   0.7908 B(  6-O ,  8-H ) :   0.6942 
B(  9-O , 10-H ) :   0.7778 B(  9-O , 11-H ) :   0.7484 B( 12-O , 13-H ) :   0.7686 
B( 12-O , 14-H ) :   0.7704 B( 15-O , 16-H ) :   0.7783 B( 15-O , 17-H ) :   0.7616 
B( 18-O , 19-H ) :   0.7800 B( 18-O , 20-H ) :   0.7333 

-------
TIMINGS
-------

Total SCF time: 0 days 0 hours 0 min 1 sec 

Total time                  ....       1.816 sec
Sum of individual times     ....       1.796 sec  ( 98.9%)

SCF preparation             ....       0.043 sec  (  2.3%)
Fock matrix formation       ....       1.698 sec  ( 93.5%)
  Startup                   ....       0.004 sec  (  0.2% of F)
  Coulomb+Exchange Fock     ....       1.685 sec  ( 99.2% of F)
Diagonalization             ....       0.000 sec  (  0.0%)
Density matrix formation    ....       0.008 sec  (  0.4%)
Total Energy calculation    ....       0.003 sec  (  0.1%)
Population analysis         ....       0.013 sec  (  0.7%)
Orbital Transformation      ....       0.005 sec  (  0.3%)
Orbital Orthonormalization  ....       0.000 sec  (  0.0%)
DIIS solution               ....       0.010 sec  (  0.6%)
SOSCF solution              ....       0.016 sec  (  0.9%)
Finished LeanSCF after   1.8 sec

Maximum memory used throughout the entire LEANSCF-calculation: 10.9 MB

-------------------------   --------------------
FINAL SINGLE POINT ENERGY      -531.998340719771
-------------------------   --------------------

------------------------------------------------------------------------------
                         ORCA SCF GRADIENT CALCULATION
------------------------------------------------------------------------------

Nuc. rep. gradient        (SHARK) ... done (  0.0 sec)
HCore & Overlap gradient  (SHARK) ... done (  0.1 sec)
Two-electron gradient     (SHARK) ... done (  2.5 sec)

------------------
CARTESIAN GRADIENT
------------------

   1   O   :    0.050979723   -0.114470553    0.007846644
   2   H   :    0.059392838    0.101547693    0.032577246
   3   H   :   -0.114115407    0.016276199   -0.039643108
   4   O   :    0.094298145    0.019339583    0.082023380
   5   H   :   -0.045929675   -0.102363956   -0.024247308
   6   H   :   -0.048286113    0.085824970   -0.057310156
   7   O   :   -0.040077242   -0.107434494    0.064606924
   8   H   :    0.105890080    0.011904046   -0.033846528
   9   H   :   -0.064248168    0.092456406   -0.028402423
  10   O   :   -0.090500285    0.057725616    0.069606892
  11   H   :    0.080879442   -0.066191312    0.042789397
  12   H   :    0.009673662    0.007261353   -0.114352886
  13   O   :   -0.112204829   -0.003204903    0.043754389
  14   H   :    0.087067089    0.046933986    0.056685293
  15   H   :    0.028760129   -0.043051866   -0.101813011
  16   O   :    0.114979254    0.018100168    0.040967746
  17   H   :   -0.048357947    0.065402424   -0.078672332
  18   H   :   -0.068227496   -0.085041702    0.037793482
  19   O   :   -0.064951520    0.073394566   -0.080221173
  20   H   :   -0.002749400   -0.113258396   -0.005577367
  21   H   :    0.067727719    0.038850173    0.085434900

Difference to translation invariance:
           :   -0.0000000001   -0.0000000001   -0.0000000001

Difference to rotation invariance:
           :   -0.0000001326    0.0000001333    0.0000000189

Norm of the Cartesian gradient     ...    0.5454649470
RMS gradient                       ...    0.0687221238
MAX gradient                       ...    0.1149792543

-------
TIMINGS
-------

Total SCF gradient time     ....        2.596 sec

Densities                   ....       0.000 sec  (  0.0%)
One electron gradient       ....       0.135 sec  (  5.2%)
Two electron gradient       ....       2.461 sec  ( 94.8%)

Maximum memory used throughout the entire SCFGRAD-calculation: 16.8 MB

------------------------------------------------------------------------------
                              ORCA PROPERTY CALCULATIONS
------------------------------------------------------------------------------

GBWName                                 ... supersys.gbw
Number of atoms                         ...     21
Number of basis functions               ...    126
Max core memory                         ...   1024 MB

Electric properties:
Dipole moment                           ... YES
Quadrupole moment                       ...  NO
Static polarizability (Dipole/Dipole)   ...  NO
Static polarizability (Dipole/Quad.)    ...  NO
Static polarizability (Quad./Quad.)     ...  NO
Static polarizability (Velocity)        ...  NO

Atomic electric properties:
Dipole moment                           ...  NO
Quadrupole moment                       ...  NO
Static polarizability                   ...  NO

Choice of electric origin               ... Center of mass
Position of electric origin             ...    40.735180    88.878212    76.637932

General magnetic properties:
Magnetizability                         ...  NO

EPR properties:
g-Tensor (aka g-matrix)                 ...  NO
Zero-Field splitting spin-orbit         ...  NO
Zero-field splitting spin-spin          ...  NO
Hyperfine couplings                     ...  NO (   0 nuclei)
Quadrupole couplings                    ...  NO (   0 nuclei)
Contact density                         ...  NO (   0 nuclei)

NMR properties:
Chemical shifts                         ...  NO (   0 nuclei)
Spin-rotation constants                 ...  NO (   0 nuclei)
Spin-spin couplings                     ...  NO (   0 nuclei,    0 pairs)

Choice of magnetic origin               ... GIAO
Position of magnetic origin             ...     0.000000     0.000000     0.000000

Properties with geometric perturbations:
SCF Hessian                             ...  NO
IR spectrum                             ...  NO
VCD spectrum                            ...  NO
X-ray spectroscopy properties:
SCF XES/XAS/RIXS spectra                ...  NO


-------------
DIPOLE MOMENT
-------------

Method             : SCF
Type of density    : Electron Density
Multiplicity       :   1
Irrep              :   0
Energy             :  -531.9983407197706811 Eh
Relativity type    : 
Basis              : AO
                                X                 Y                 Z
Electronic contribution:      0.145197602      -0.271401226      -0.052689843
Nuclear contribution   :     -0.349999324      -0.361669020       1.682883383
                        -----------------------------------------
Total Dipole Moment    :     -0.204801722      -0.633070246       1.630193540
                        -----------------------------------------
Magnitude (a.u.)       :      1.760753435
Magnitude (Debye)      :      4.475479560



--------------------
Rotational spectrum 
--------------------
 
Rotational constants in cm-1:             0.030965             0.026278             0.022480 
Rotational constants in MHz :           928.310019           787.779796           673.945449 

Dipole components along the rotational axes: 
x,y,z [a.u.] :     0.929083    -0.709908     1.316468 
x,y,z [Debye]:     2.361542    -1.804442     3.346196 

 

Dipole moment calculation done in   0.0 sec 

Maximum memory used throughout the entire PROP-calculation: 5.4 MB

--------------------------------
SUGGESTED CITATIONS FOR THIS RUN
--------------------------------

Below you find a list of papers that are relevant to this ORCA run
We neither can nor want to force you to cite these papers, but we appreciate if you do
You receive ORCA, which is the product of decades of hard work by many enthusiastic individuals, for free
The only thing we kindly ask in return is that you cite our papers,
We deeply appreciate it, if you show your appreciation for ORCA by not just citing the generic ORCA reference.

Please note that relegating all ORCA citations to the supporting information does *not* help us.
SI sections are not indexed - citations you put there will not count into any citation statistics
But we need these citations in order to attract the funding resources that allow us to do what we are doing

Therefore, if you are a happy ORCA user, please consider citing a few of the papers listed below in the main body of your paper

In addition to the list printed below, the program has created the file supersys.bibtex that contains the list in bibtex format
You can import this file easily into all common literature databanks and citation aid programs


List of essential papers. We consider these as the minimum necessary citations

  1. Neese,F.
     Software update: the ORCA program system, version 5.0
     WIRES Comput. Molec. Sci., 2022 12(1)e1606
     doi.org/10.1002/wcms.1606

List of papers to cite with high priority. The work reported in these papers was absolutely
necessary for this run to complete.
Our perspective: the developers of density functionals and basis sets usually get cited in chemistry papers
Good! But without the algorithms to do something with them, the functionals or basis sets would not do anything.
Hence, in our opinion, the algorithm design and method developments papers are equally worthy of getting cited

  1. Neese,F.
     The SHARK Integral Generation and Digestion System
     J. Comp. Chem., 2022  1-16
     doi.org/10.1002/jcc.26942

List of suggested additional citations. These are papers that are important in the 'surrounding' of 
of this run, or papers that preceded the highly important papers. If you like your results we are grateful for a citation.

  1. Neese,F.
     The ORCA program system
     WIRES Comput. Molec. Sci., 2012 2(1)73-78
     doi.org/10.1002/wcms.81
  2. Neese,F.
     Software update: the ORCA program system, version 4.0
     WIRES Comput. Molec. Sci., 2018 8(1)1-6
     doi.org/10.1002/wcms.1327
  3. Neese,F.; Wennmohs,F.; Becker,U.; Riplinger,C.
     The ORCA quantum chemistry program package
     J. Chem. Phys., 2020 152 Art. No. L224108
     doi.org/10.1063/5.0004608

List of optional additional citations

  1. Neese,F.
     Approximate second-order SCF convergence for spin unrestricted wavefunctions
     Chem. Phys. Lett., 2000 325(1-3)93-98
     doi.org/10.1016/s0009-2614(00)00662-x

Timings for individual modules:

Sum of individual times          ...        5.902 sec (=   0.098 min)
Startup calculation              ...        0.888 sec (=   0.015 min)  15.0 %
SCF iterations                   ...        2.174 sec (=   0.036 min)  36.8 %
Property calculations            ...        0.183 sec (=   0.003 min)   3.1 %
SCF Gradient evaluation          ...        2.657 sec (=   0.044 min)  45.0 %
                             ****ORCA TERMINATED NORMALLY****
TOTAL RUN TIME: 0 days 0 hours 0 minutes 6 seconds 424 msec
