
                                 *****************
                                 * O   R   C   A *
                                 *****************

                                            #,                                       
                                            ###                                      
                                            ####                                     
                                            #####                                    
                                            ######                                   
                                           ########,                                 
                                     ,,################,,,,,                         
                               ,,#################################,,                 
                          ,,##########################################,,             
                       ,#########################################, ''#####,          
                    ,#############################################,,   '####,        
                  ,##################################################,,,,####,       
                ,###########''''           ''''###############################       
              ,#####''   ,,,,##########,,,,          '''####'''          '####       
            ,##' ,,,,###########################,,,                        '##       
           ' ,,###''''                  '''############,,,                           
         ,,##''                                '''############,,,,        ,,,,,,###''
      ,#''                                            '''#######################'''  
     '                                                          ''''####''''         
             ,#######,   #######,   ,#######,      ##                                
            ,#'     '#,  ##    ##  ,#'     '#,    #''#        ,####,   ,####,        
            ##       ##  ##   ,#'  ##            #'  '#       #'       #'  '#        
            ##       ##  #######   ##           ,######,      #####,   #    #        
            '#,     ,#'  ##    ##  '#,     ,#' ,#      #,     #,   #   #,  ,#        
             '#######'   ##     ##  '#######'  #'      '#     '####' # '####'        



                #########################################################
                #                        -***-                          #
                #          Department of theory and spectroscopy        #
                #                                                       #
                #                      Frank Neese                      #
                #                                                       #
                #     Directorship, Architecture, Infrastructure        #
                #                    SHARK, DRIVERS                     #
                #        Core code/Algorithms in most modules           #
                #                                                       #
                #        Max Planck Institute fuer Kohlenforschung      #
                #                Kaiser Wilhelm Platz 1                 #
                #                 D-45470 Muelheim/Ruhr                 #
                #                      Germany                          #
                #                                                       #
                #                  All rights reserved                  #
                #                        -***-                          #
                #########################################################


                         Program Version 6.0.1  -  RELEASE   -


 With contributions from (in alphabetic order):
[Max-Planck-Institut fuer Kohlenforschung]                               
  Daniel Aravena         : Magnetic Suceptibility                        
  Michael Atanasov       : Ab Initio Ligand Field Theory (pilot matlab implementation)
  Alexander A. Auer      : GIAO ZORA, VPT2 properties, NMR spectrum      
  Ute Becker             : All parallelization in ORCA, NUMFREQ, NUMCALC 
  Giovanni Bistoni       : ED, misc. LED, open-shell LED, HFLD           
  Martin Brehm           : Molecular dynamics                            
  Dmytro Bykov           : pre 5.0 version of the SCF Hessian            
  Marcos Casanova-Páez   : Triplet and SCS-CIS(D). UHF-(DLPNO)-IP/EA/STEOM-CCSD. UHF-CVS-IP/STEOM-CCSD   
  Vijay G. Chilkuri      : MRCI spin determinant printing, contributions to CSF-ICE 
  Pauline Colinet        : FMM embedding                                 
  Dipayan Datta          : RHF DLPNO-CCSD density                        
  Achintya Kumar Dutta   : EOM-CC, STEOM-CC                              
  Nicolas Foglia         : Exact transition moments, OPA infrastructure, MCD improvements    
  Dmitry Ganyushin       : Spin-Orbit,Spin-Spin,Magnetic field MRCI      
  Miquel Garcia-Rates    : C-PCM and meta-GGA Hessian, CCSD/C-PCM, Gaussian charge scheme 
  Tiago L. C. Gouveia    : GS-ROHF, GS-ROCIS                             
  Yang Guo               : DLPNO-NEVPT2, F12-NEVPT2, CIM, IAO-localization        
  Andreas Hansen         : Spin unrestricted coupled pair/coupled cluster methods 
  Ingolf Harden          : AUTO-CI MPn and infrastructure                
  Benjamin Helmich-Paris : MC-RPA, TRAH-(SCF,CASSCF), AVAS, COSX integrals, SCF dyn. polar. 
  Lee Huntington         : MR-EOM, pCC                                   
  Robert Izsak           : Overlap fitted RIJCOSX, COSX-SCS-MP3, EOM     
  Riya Kayal             : Wick's Theorem for AUTO-CI, AUTO-CI UHF-CCSDT 
  Emily Kempfer          : AUTO-CI, RHF CISDT and CCSDT                  
  Christian Kollmar      : KDIIS, OOCD, Brueckner-CCSD(T), CCSD density, CASPT2, CASPT2-K, improved NEVPT2 
  Axel Koslowski         : Symmetry handling                             
  Simone Kossmann        : meta-GGA functionals, TD-DFT gradient, OOMP2, (MP2 Hessian; deprecated post 5.0) 
  Lucas Lang             : DCDCAS                                        
  Marvin Lechner         : AUTO-CI (C++ implementation), FIC-MRCC        
  Spencer Leger          : CASSCF response                               
  Dagmar Lenk            : GEPOL surface, SMD, ORCA-2-JSON               
  Dimitrios Liakos       : Extrapolation schemes; Compound Job, initial MDCI parallelization 
  Dimitrios Manganas     : Further ROCIS development; embedding schemes. LFT, Crystal Embedding 
  Dimitrios Pantazis     : SARC Basis sets                               
  Anastasios Papadopoulos: AUTO-CI, single reference methods and gradients 
  Taras Petrenko         : pre 6.0 DFT Hessian and TD-DFT gradient, (ASA, deprecated), ECA, 1-Electron XAS/XES, NRVS 
  Peter Pinski           : DLPNO-MP2, DLPNO-MP2 Gradient                 
  Christoph Reimann      : Effective Core Potentials                     
  Marius Retegan         : Local ZFS, SOC                                
  Christoph Riplinger    : Optimizer, TS searches, QM/MM, DLPNO-CCSD(T), (RO)-DLPNO pert. Triples 
  Michael Roemelt        : Original ROCIS implementation                 
  Masaaki Saitow         : Open-shell DLPNO-CCSD energy and density      
  Barbara Sandhoefer     : DKH picture change effects                    
  Kantharuban Sivalingam : CASSCF convergence/infrastructure, NEVPT2 and variants, FIC-MRCI 
  Bernardo de Souza      : ESD, SOC TD-DFT                               
  Georgi L. Stoychev     : AutoAux, RI-MP2 NMR, DLPNO-MP2 response, X2C  
  Van Anh Tran           : RI-MP2 g-tensors                              
  Willem Van den Heuvel  : Paramagnetic NMR                              
  Zikuan Wang            : NOTCH, Electric field optimization            
  Frank Wennmohs         : Technical directorship and infrastructure     
  Hang Xu                : AUTO-CI-Response properties                   
                                                                         
[FACCTs GmbH]                                                            
  Markus Bursch, Miquel Garcia-Rates, Christoph Riplinger, Bernardo de Souza, Georgi L. Stoychev 
                                                                 
  APM, Basis sets (HGBS, AHGBS, def-TZVP (Ac-Lr), def2-XVPD (La-Lu)), CI-OPT, improved COSX, DLPNO-Multilevel,           
  DOCKER, DRACO, updates on ESD, GOAT, IRC, LR-CPCM, MBIS, meta-GGA TD-DFT gradient, ML-optimized integration grids, 
  MM, NACMEs, nearIR, NEB, NEB-TS, NL-DFT gradient (VV10), 2- and 3-layer-ONIOM, interface openCOSMO-RS, QMMM,   
  Crystal-QMMM, SF, symmetry and pop. for TD-DFT, r2SCAN hybrids, SOLVATOR                                   
                                                                         
[Other institutions]                                                     
  V. Asgeirsson          : NEB                                           
  Christoph Bannwarth    : sTDA-DFT, sTD-DFT, PBEh-3c, B97-3c, D3        
  Sebastian Ehlert       : rSCAN, r2SCAN, r2SCAN-3c, D4, dhf basis sets  
  Marvin Friede          : D4 for Fr, Ra, Ac-Lr                          
  Lars Goerigk           : TD-DFT with DH, B97 family of functionals     
  Stefan Grimme          : VdW corrections, initial TS optimization, DFT functionals, gCP, sTDA/sTD-DF 
  Waldemar Hujo          : DFT-NL                                        
  H. Jonsson             : NEB                                           
  Holger Kruse           : gCP                                           
  Marcel Mueller         : wB97X-3c, vDZP basis set                      
  Hagen Neugebauer       : wr2SCAN                                       
  Tobias Risthaus        : range-separated hybrid DFT                    
  Lukas Wittmann         : regularized MP2, r2SCAN double-hybrids, wr2SCAN        
                                                                         
We gratefully acknowledge several colleagues who have allowed us to      
interface, adapt or use parts of their codes:                            
  Ed Valeev, F. Pavosevic, A. Kumar             : LibInt (2-el integral package), F12 methods 
  Garnet Chan, S. Sharma, J. Yang, R. Olivares  : DMRG                   
  Ulf Ekstrom                                   : XCFun DFT Library      
  Mihaly Kallay                                 : mrcc  (arbitrary order and MRCC methods)
  Frank Weinhold                                : gennbo (NPA and NBO analysis)           
  Simon Mueller                                 : openCOSMO-RS                            
  Christopher J. Cramer and Donald G. Truhlar   : smd solvation model                     
  S Lehtola, MJT Oliveira, MAL Marques          : LibXC Library                           
  Liviu Ungur et al                             : ANISO software                          


 Your calculation uses the libint2 library for the computation of 2-el integrals
 For citations please refer to: http://libint.valeyev.net

 Your ORCA version has been built with support for libXC version: 6.2.2
 For citations please refer to: https://libxc.gitlab.io

 This ORCA versions uses:
   CBLAS   interface :  Fast vector & matrix operations
   LAPACKE interface :  Fast linear algebra routines
   SCALAPACK package :  Parallel linear algebra routines
   Shared memory     :  Shared parallel matrices
   BLAS/LAPACK       :  OpenBLAS 0.3.27  USE64BITINT DYNAMIC_ARCH NO_AFFINITY SkylakeX SINGLE_THREADED
        Core in use  :  SkylakeX
   Copyright (c) 2011-2014, The OpenBLAS Project


================================================================================

----- Orbital basis set information -----
Your calculation utilizes the basis: 6-31G*
   H-He, Li-Ne : W. J. Hehre, R. Ditchfield and J.A. Pople, J. Chem. Phys. 56, 2257 (1972).
                 Note: He and Ne are unpublished basis sets taken from the Gaussian program.
                 Note: Li and B from J. D. Dill and J. A. Pople, J. Chem. Phys. 62, 2921 (1975).
   Na - Ar     : M. M. Francl, W. J. Pietro, W. J. Hehre, J. S. Binkley, M. S. Gordon, 
                 D. J. DeFrees and J. A. Pople, J. Chem. Phys. 77, 3654 (1982).
   K - Zn      : V. A. Rassolov, J. A. Pople, M. A. Ratner, and T. L. Windus, J. Chem. Phys. 109, 1223 (1998).

================================================================================
                                        WARNINGS
                       Please study these warnings very carefully!
================================================================================


================================================================================
                                       INPUT FILE
================================================================================
NAME = frag.inp
|  1> !HF 6-31G* EnGrad
|  2> %pal nprocs 1 end
|  3> *xyz 0 1
|  4> O 24.10596000 46.93173000 41.50917000
|  5> H 24.52341000 46.31399000 41.96223000
|  6> H 24.52212000 47.66562000 41.73132000
|  7> O 20.35232000 49.63574000 40.01023000
|  8> H 20.79050000 48.92392000 40.26012000
|  9> H 19.54326000 49.49202000 40.30334000
| 10> O 21.78987000 47.25010000 37.48256000
| 11> H 21.67133000 47.22017000 38.34638000
| 12> H 21.14108000 47.76263000 37.20411000
| 13> O 19.10373000 45.58535000 40.48424000
| 14> H 18.38270000 45.25544000 40.12036000
| 15> H 18.82331000 45.89664000 41.24949000
| 16> *
| 17> 
| 18>                          ****END OF INPUT****
================================================================================

                     *******************************
                     * Energy+Gradient Calculation *
                     *******************************

---------------------------------
CARTESIAN COORDINATES (ANGSTROEM)
---------------------------------
  O     24.105960   46.931730   41.509170
  H     24.523410   46.313990   41.962230
  H     24.522120   47.665620   41.731320
  O     20.352320   49.635740   40.010230
  H     20.790500   48.923920   40.260120
  H     19.543260   49.492020   40.303340
  O     21.789870   47.250100   37.482560
  H     21.671330   47.220170   38.346380
  H     21.141080   47.762630   37.204110
  O     19.103730   45.585350   40.484240
  H     18.382700   45.255440   40.120360
  H     18.823310   45.896640   41.249490

----------------------------
CARTESIAN COORDINATES (A.U.)
----------------------------
  NO LB      ZA    FRAG     MASS         X           Y           Z
   0 O     8.0000    0    15.999   45.553663   88.688117   78.440963
   1 H     1.0000    0     1.008   46.342529   87.520757   79.297123
   2 H     1.0000    0     1.008   46.340091   90.074968   78.860766
   3 O     8.0000    0    15.999   38.460311   93.797955   75.608377
   4 H     1.0000    0     1.008   39.288351   92.452810   76.080601
   5 H     1.0000    0     1.008   36.931409   93.526364   76.162275
   6 O     8.0000    0    15.999   41.176887   89.289749   70.831773
   7 H     1.0000    0     1.008   40.952879   89.233189   72.464156
   8 H     1.0000    0     1.008   39.950851   90.258290   70.305579
   9 O     8.0000    0    15.999   36.100818   86.143827   76.504126
  10 H     1.0000    0     1.008   34.738269   85.520388   75.816493
  11 H     1.0000    0     1.008   35.570901   86.732080   77.950239

--------------------------------
INTERNAL COORDINATES (ANGSTROEM)
--------------------------------
 O      0   0   0     0.000000000000     0.00000000     0.00000000
 H      1   0   0     0.872427976225     0.00000000     0.00000000
 H      1   2   0     0.872430111929   103.60043743     0.00000000
 O      1   2   3     4.862952236379   157.38780147   238.36472283
 H      4   1   2     0.872430190273    21.62011441   320.05077009
 H      4   1   2     0.872437386922   121.37625074   357.75029485
 O      5   4   1     3.393413229022   108.41619438   262.70415579
 H      7   5   4     0.872429096775    33.53678511   194.84682685
 H      7   5   4     0.872439033687    75.66802933   340.40737457
 O      8   7   5     3.719630569290   132.68352841   105.44395767
 H     10   8   7     0.872429666735   119.79994743   348.29022196
 H     10   8   7     0.872435901944   124.69375762   211.73664810

---------------------------
INTERNAL COORDINATES (A.U.)
---------------------------
 O      0   0   0     0.000000000000     0.00000000     0.00000000
 H      1   0   0     1.648649946636     0.00000000     0.00000000
 H      1   2   0     1.648653982532   103.60043743     0.00000000
 O      1   2   3     9.189647929096   157.38780147   238.36472283
 H      4   1   2     1.648654130581    21.62011441   320.05077009
 H      4   1   2     1.648667730277   121.37625074   357.75029485
 O      5   4   1     6.412621662077   108.41619438   262.70415579
 H      7   5   4     1.648652064169    33.53678511   194.84682685
 H      7   5   4     1.648670842211    75.66802933   340.40737457
 O      8   7   5     7.029083095321   132.68352841   105.44395767
 H     10   8   7     1.648653141238   119.79994743   348.29022196
 H     10   8   7     1.648664924074   124.69375762   211.73664810

---------------------
BASIS SET INFORMATION
---------------------
There are 2 groups of distinct atoms

 Group   1 Type O   : 10s4p1d contracted to 3s2p1d pattern {631/31/1}
 Group   2 Type H   : 4s contracted to 2s pattern {31}

Atom   0O    basis set group =>   1
Atom   1H    basis set group =>   2
Atom   2H    basis set group =>   2
Atom   3O    basis set group =>   1
Atom   4H    basis set group =>   2
Atom   5H    basis set group =>   2
Atom   6O    basis set group =>   1
Atom   7H    basis set group =>   2
Atom   8H    basis set group =>   2
Atom   9O    basis set group =>   1
Atom  10H    basis set group =>   2
Atom  11H    basis set group =>   2
------------------------------------------------------------------------------
                             ORCA STARTUP CALCULATIONS
------------------------------------------------------------------------------
------------------------------------------------------------------------------
                   ___                                                        
                  /   \      - P O W E R E D   B Y -                         
                 /     \                                                     
                 |  |  |   _    _      __       _____    __    __             
                 |  |  |  | |  | |    /  \     |  _  \  |  |  /  |          
                  \  \/   | |  | |   /    \    | | | |  |  | /  /          
                 / \  \   | |__| |  /  /\  \   | |_| |  |  |/  /          
                |  |  |   |  __  | /  /__\  \  |    /   |      \           
                |  |  |   | |  | | |   __   |  |    \   |  |\   \          
                \     /   | |  | | |  |  |  |  | |\  \  |  | \   \       
                 \___/    |_|  |_| |__|  |__|  |_| \__\ |__|  \__/        
                                                                              
                      - O R C A' S   B I G   F R I E N D -                    
                                      &                                       
                       - I N T E G R A L  F E E D E R -                       
                                                                              
 v1 FN, 2020, v2 2021, v3 2022-2024                                           
------------------------------------------------------------------------------


----------------------
SHARK INTEGRAL PACKAGE
----------------------

Number of atoms                             ...     12
Number of basis functions                   ...     72
Number of shells                            ...     40
Maximum angular momentum                    ...      2
Integral batch strategy                     ... SHARK/LIBINT Hybrid
RI-J (if used) integral strategy            ... SPLIT-RIJ (Revised 2003 algorithm where possible)
Printlevel                                  ...      1
Contraction scheme used                     ... SEGMENTED contraction
Prescreening option                         ... SCHWARTZ
   Thresh                                   ... 2.500e-11
   Tcut                                     ... 2.500e-12
   Tpresel                                  ... 2.500e-12 
Coulomb Range Separation                    ... NOT USED
Exchange Range Separation                   ... NOT USED
Multipole approximations                    ... NOT USED
Finite Nucleus Model                        ... NOT USED
CABS basis                                  ... NOT available
Auxiliary Coulomb fitting basis             ... NOT available
Auxiliary J/K fitting basis                 ... NOT available
Auxiliary Correlation fitting basis         ... NOT available
Auxiliary 'external' fitting basis          ... NOT available

Checking pre-screening integrals            ... done (  0.0 sec) Dimension = 40
Check shell pair data                       ... done (  0.0 sec)
Shell pair information
Shell pair cut-off parameter TPreSel        ...   2.5e-12
Total number of shell pairs                 ...       820
Shell pairs after pre-screening             ...       671
Total number of primitive shell pairs       ...      4386
Primitive shell pairs kept                  ...      2260
          la=0 lb=0:    336 shell pairs
          la=1 lb=0:    189 shell pairs
          la=1 lb=1:     31 shell pairs
          la=2 lb=0:     81 shell pairs
          la=2 lb=1:     26 shell pairs
          la=2 lb=2:      8 shell pairs

Calculating one electron integrals          ... done (  0.0 sec)
Calculating Nuclear repulsion               ... done (  0.0 sec) ENN=    111.090707756230 Eh

Diagonalization of the overlap matrix:
Smallest eigenvalue                        ... 4.489e-02
Time for diagonalization                   ...    0.001 sec
Threshold for overlap eigenvalues          ... 1.000e-07
Number of eigenvalues below threshold      ... 0
Time for construction of square roots      ...    0.005 sec
Total time needed                          ...    0.009 sec

-------------------
DFT GRID GENERATION
-------------------

General Integration Accuracy     IntAcc      ... 4.388
Radial Grid Type                 RadialGrid  ... OptM3 with GC (2021)
Angular Grid (max. ang.)         AngularGrid ... 4 (Lebedev-302)
Angular grid pruning method      GridPruning ... 4 (adaptive)
Weight generation scheme         WeightScheme... mBecke (2022)
Basis function cutoff            BFCut       ... 1.0000e-11
Integration weight cutoff        WCut        ... 1.0000e-14
Partially contracted basis set               ... off
Rotationally invariant grid construction     ... off
Angular grids for H and He will be reduced by one unit

Total number of grid points                  ...    50891
Total number of batches                      ...      803
Average number of points per batch           ...       63
Average number of grid points per atom       ...     4241
Initializing property integral containers    ... done (  0.0 sec)

SHARK setup successfully completed in   0.5 seconds

Maximum memory used throughout the entire STARTUP-calculation: 17.3 MB
-------------------------------------------------------------------------------
                                 ORCA GUESS
                   Start orbitals & Density for SCF / CASSCF
-------------------------------------------------------------------------------

------------
SCF SETTINGS
------------
Hamiltonian:
 Ab initio Hamiltonian  Method          .... Hartree-Fock(GTOs)


General Settings:
 Integral files         IntName         .... frag
 Hartree-Fock type      HFTyp           .... RHF
 Total Charge           Charge          ....    0
 Multiplicity           Mult            ....    1
 Number of Electrons    NEL             ....   40
 Basis Dimension        Dim             ....   72
 Nuclear Repulsion      ENuc            ....    111.0907077562 Eh

Convergence Acceleration:
 AO-DIIS                CNVDIIS         .... on
   Start iteration      DIISMaxIt       ....    12
   Startup error        DIISStart       ....  0.200000
   # of expansion vecs  DIISMaxEq       ....     5
   Bias factor          DIISBfac        ....   1.050
   Max. coefficient     DIISMaxC        ....  10.000
 MO-DIIS                CNVKDIIS        .... off
 Trust-Rad. Augm. Hess. CNVTRAH         .... auto
   Auto Start mean grad. ratio tolernc. ....  1.125000
   Auto Start start iteration           ....    50
   Auto Start num. interpolation iter.  ....    10
   Max. Number of Micro iterations      ....    24
   Max. Number of Macro iterations      .... Maxiter - #DIIS iter
   Number of Davidson start vectors     ....     2
   Converg. threshold    (grad. norm)   ....   1.000e-05
   Grad. Scal. Fac. for Micro threshold ....   0.100
   Minimum threshold for Micro iter.    ....   1.000e-02
   NR start threshold (gradient norm)   ....   1.000e-04
   Initial trust radius                 ....   0.400
   Minimum AH scaling param. (alpha)    ....   1.000
   Maximum AH scaling param. (alpha)    .... 1000.000
   Quad. conv. algorithm                .... NR
   White noise on init. David. guess    .... on
   Maximum white noise                  ....   0.010
   Pseudo random numbers                .... off
   Inactive MOs                         .... canonical
   Orbital update algorithm             .... Taylor
   Preconditioner                       .... Diag
   Full preconditioner red. dimension   ....   250
 SOSCF                  CNVSOSCF        .... on
   Start iteration      SOSCFMaxIt      ....   150
   Startup grad/error   SOSCFStart      ....  0.003300
   Hessian update       SOSCFHessUp     .... L-BFGS
 Level Shifting         CNVShift        .... on
   Level shift para.    LevelShift      ....    0.2500
   Turn off err/grad.   ShiftErr        ....    0.0010
 Zerner damping         CNVZerner       .... off
 Static damping         CNVDamp         .... on
   Fraction old density DampFac         ....    0.7000
   Max. Damping (<1)    DampMax         ....    0.9800
   Min. Damping (>=0)   DampMin         ....    0.0000
   Turn off err/grad.   DampErr         ....    0.1000

SCF Procedure:
 Maximum # iterations   MaxIter         ....   125
 SCF integral mode      SCFMode         .... Direct
   Integral package                     .... SHARK and LIBINT hybrid scheme
 Reset frequency        DirectResetFreq ....    20
 Integral Threshold     Thresh          ....  2.500e-11 Eh
 Primitive CutOff       TCut            ....  2.500e-12 Eh

Convergence Tolerance:
 Convergence Check Mode ConvCheckMode   .... Total+1el-Energy
 Convergence forced     ConvForced      .... 0
 Energy Change          TolE            ....  1.000e-08 Eh
 1-El. energy change                    ....  1.000e-05 Eh
 Orbital Gradient       TolG            ....  1.000e-05
 Orbital Rotation angle TolX            ....  1.000e-05
 DIIS Error             TolErr          ....  5.000e-07

------------------------------
INITIAL GUESS: MODEL POTENTIAL
------------------------------
Loading Hartree-Fock densities                     ... done
Calculating cut-offs                               ... done
Initializing the effective Hamiltonian             ... done
Setting up the integral package (SHARK)            ... done
Starting the Coulomb interaction                   ... done (   0.0 sec)
Making the grid                                    ... done (   0.1 sec)
Mapping shells                                     ... done
Starting the XC term evaluation                    ... done (   0.0 sec)
Transforming the Hamiltonian                       ... done (   0.0 sec)
Diagonalizing the Hamiltonian                      ... done (   0.0 sec)
Back transforming the eigenvectors                 ... done (   0.0 sec)
Now organizing SCF variables                       ... done
                      ------------------
                      INITIAL GUESS DONE (   0.1 sec)
                      ------------------
             **** ENERGY FILE WAS UPDATED (frag.en.tmp) ****
Finished Guess after   0.2 sec
Maximum memory used throughout the entire GUESS-calculation: 7.2 MB

-------------------------------------------------------------------------------------------
                                      ORCA LEAN-SCF
                              memory conserving SCF solver
-------------------------------------------------------------------------------------------

----------------------------------------D-I-I-S--------------------------------------------
Iteration    Energy (Eh)           Delta-E    RMSDP     MaxDP     DIISErr   Damp  Time(sec)
-------------------------------------------------------------------------------------------
               ***  Starting incremental Fock matrix formation  ***
    1    -303.5646435119714397     0.00e+00  6.28e-03  7.28e-02  3.31e-01  0.700   0.1
    2    -303.7271370555823751    -1.62e-01  4.27e-03  4.98e-02  2.01e-01  0.700   0.1
                               ***Turning on AO-DIIS***
    3    -303.8149071950841744    -8.78e-02  1.67e-03  2.15e-02  1.13e-01  0.700   0.2
    4    -303.8679104778332771    -5.30e-02  1.01e-03  1.39e-02  7.67e-02  0.700   0.1
    5    -303.9029386855169150    -3.50e-02  2.33e-03  3.29e-02  5.46e-02  0.000   0.2
                              *** Initializing SOSCF ***
---------------------------------------S-O-S-C-F--------------------------------------
Iteration    Energy (Eh)           Delta-E    RMSDP     MaxDP     MaxGrad    Time(sec)
--------------------------------------------------------------------------------------
    6    -303.9810413085732534    -7.81e-02  1.61e-04  1.80e-03  3.25e-03     0.1
               *** Restarting incremental Fock matrix formation ***
    7    -303.9811025226600805    -6.12e-05  1.07e-04  8.49e-04  5.24e-04     0.1
    8    -303.9811137161975125    -1.12e-05  7.43e-05  6.14e-04  3.55e-04     0.1
    9    -303.9811158019020922    -2.09e-06  9.94e-06  1.00e-04  1.02e-04     0.1
   10    -303.9811159025696838    -1.01e-07  1.28e-06  1.32e-05  9.68e-06     0.1
   11    -303.9811159047378055    -2.17e-09  6.63e-07  7.43e-06  2.91e-06     0.1
                 **** Energy Check signals convergence ****

               *****************************************************
               *                     SUCCESS                       *
               *           SCF CONVERGED AFTER  11 CYCLES          *
               *****************************************************

             **** ENERGY FILE WAS UPDATED (frag.en.tmp) ****

----------------
TOTAL SCF ENERGY
----------------

Total Energy       :       -303.98111590473781 Eh           -8271.74669 eV

Components:
Nuclear Repulsion  :        111.09070775623003 Eh            3022.93184 eV
Electronic Energy  :       -415.07182366096782 Eh          -11294.67853 eV
One Electron Energy:       -639.98921110405968 Eh          -17414.99180 eV
Two Electron Energy:        224.91738744309185 Eh            6120.31326 eV

Virial components:
Potential Energy   :       -609.50124889836525 Eh          -16585.37217 eV
Kinetic Energy     :        305.52013299362744 Eh            8313.62548 eV
Virial Ratio       :          1.99496263282616

---------------
SCF CONVERGENCE
---------------

  Last Energy change         ...    2.1681e-09  Tolerance :   1.0000e-08
  Last MAX-Density change    ...    7.4281e-06  Tolerance :   1.0000e-07
  Last RMS-Density change    ...    6.6303e-07  Tolerance :   5.0000e-09
  Last DIIS Error            ...    3.2548e-03  Tolerance :   5.0000e-07
  Last Orbital Gradient      ...    2.9092e-06  Tolerance :   1.0000e-05
  Last Orbital Rotation      ...    3.6179e-06  Tolerance :   1.0000e-05


----------------
ORBITAL ENERGIES
----------------

  NO   OCC          E(Eh)            E(eV) 
   0   2.0000     -20.549908      -559.1914 
   1   2.0000     -20.540371      -558.9319 
   2   2.0000     -20.539093      -558.8971 
   3   2.0000     -20.516039      -558.2698 
   4   2.0000      -1.403290       -38.1855 
   5   2.0000      -1.393623       -37.9224 
   6   2.0000      -1.392584       -37.8941 
   7   2.0000      -1.369345       -37.2618 
   8   2.0000      -0.765855       -20.8400 
   9   2.0000      -0.756297       -20.5799 
  10   2.0000      -0.755210       -20.5503 
  11   2.0000      -0.732025       -19.9194 
  12   2.0000      -0.600659       -16.3448 
  13   2.0000      -0.590984       -16.0815 
  14   2.0000      -0.590418       -16.0661 
  15   2.0000      -0.567524       -15.4431 
  16   2.0000      -0.517129       -14.0718 
  17   2.0000      -0.507353       -13.8058 
  18   2.0000      -0.506272       -13.7764 
  19   2.0000      -0.483239       -13.1496 
  20   0.0000       0.191641         5.2148 
  21   0.0000       0.228291         6.2121 
  22   0.0000       0.236777         6.4430 
  23   0.0000       0.275437         7.4950 
  24   0.0000       0.314912         8.5692 
  25   0.0000       0.318158         8.6575 
  26   0.0000       0.326060         8.8726 
  27   0.0000       0.402239        10.9455 
  28   0.0000       1.043827        28.4040 
  29   0.0000       1.052667        28.6445 
  30   0.0000       1.055585        28.7239 
*Only the first 10 virtual orbitals were printed.

                    ********************************
                    * MULLIKEN POPULATION ANALYSIS *
                    ********************************

-----------------------
MULLIKEN ATOMIC CHARGES
-----------------------
   0 O :   -0.889920
   1 H :    0.445352
   2 H :    0.444816
   3 O :   -0.892382
   4 H :    0.450111
   5 H :    0.442875
   6 O :   -0.893850
   7 H :    0.448870
   8 H :    0.443255
   9 O :   -0.889250
  10 H :    0.447403
  11 H :    0.442722
Sum of atomic charges:   -0.0000000

--------------------------------
MULLIKEN REDUCED ORBITAL CHARGES
--------------------------------
  0 O s       :     3.845573  s :     3.845573
      pz      :     1.850076  p :     5.010964
      px      :     1.801827
      py      :     1.359061
      dz2     :     0.003211  d :     0.033383
      dxz     :     0.007039
      dyz     :     0.008584
      dx2y2   :     0.000846
      dxy     :     0.013704

  1 H s       :     0.554648  s :     0.554648

  2 H s       :     0.555184  s :     0.555184

  3 O s       :     3.847662  s :     3.847662
      pz      :     1.911627  p :     5.011236
      px      :     1.417696
      py      :     1.681913
      dz2     :     0.003533  d :     0.033485
      dxz     :     0.006233
      dyz     :     0.005688
      dx2y2   :     0.009896
      dxy     :     0.008135

  4 H s       :     0.549889  s :     0.549889

  5 H s       :     0.557125  s :     0.557125

  6 O s       :     3.846493  s :     3.846493
      pz      :     1.452038  p :     5.014080
      px      :     1.733195
      py      :     1.828847
      dz2     :     0.015060  d :     0.033277
      dxz     :     0.004350
      dyz     :     0.001196
      dx2y2   :     0.002661
      dxy     :     0.010011

  7 H s       :     0.551130  s :     0.551130

  8 H s       :     0.556745  s :     0.556745

  9 O s       :     3.846136  s :     3.846136
      pz      :     1.507154  p :     5.009625
      px      :     1.648513
      py      :     1.853958
      dz2     :     0.006744  d :     0.033489
      dxz     :     0.010846
      dyz     :     0.002615
      dx2y2   :     0.006449
      dxy     :     0.006834

 10 H s       :     0.552597  s :     0.552597

 11 H s       :     0.557278  s :     0.557278



                     *******************************
                     * LOEWDIN POPULATION ANALYSIS *
                     *******************************

----------------------
LOEWDIN ATOMIC CHARGES
----------------------
   0 O :   -0.627269
   1 H :    0.313950
   2 H :    0.313489
   3 O :   -0.626680
   4 H :    0.314386
   5 H :    0.312742
   6 O :   -0.627237
   7 H :    0.313393
   8 H :    0.312583
   9 O :   -0.626726
  10 H :    0.315148
  11 H :    0.312221

-------------------------------
LOEWDIN REDUCED ORBITAL CHARGES
-------------------------------
  0 O s       :     3.555359  s :     3.555359
      pz      :     1.856202  p :     5.029763
      px      :     1.811040
      py      :     1.362521
      dz2     :     0.003817  d :     0.042147
      dxz     :     0.007454
      dyz     :     0.011280
      dx2y2   :     0.001677
      dxy     :     0.017919

  1 H s       :     0.686050  s :     0.686050

  2 H s       :     0.686511  s :     0.686511

  3 O s       :     3.555303  s :     3.555303
      pz      :     1.916238  p :     5.029189
      px      :     1.422491
      py      :     1.690460
      dz2     :     0.004179  d :     0.042187
      dxz     :     0.007903
      dyz     :     0.006095
      dx2y2   :     0.013122
      dxy     :     0.010889

  4 H s       :     0.685614  s :     0.685614

  5 H s       :     0.687258  s :     0.687258

  6 O s       :     3.554172  s :     3.554172
      pz      :     1.456635  p :     5.031088
      px      :     1.741727
      py      :     1.832726
      dz2     :     0.019968  d :     0.041977
      dxz     :     0.005501
      dyz     :     0.001659
      dx2y2   :     0.002756
      dxy     :     0.012092

  7 H s       :     0.686607  s :     0.686607

  8 H s       :     0.687417  s :     0.687417

  9 O s       :     3.555633  s :     3.555633
      pz      :     1.512396  p :     5.028834
      px      :     1.661761
      py      :     1.854676
      dz2     :     0.009107  d :     0.042259
      dxz     :     0.013900
      dyz     :     0.003728
      dx2y2   :     0.007147
      dxy     :     0.008377

 10 H s       :     0.684852  s :     0.684852

 11 H s       :     0.687779  s :     0.687779



                      *****************************
                      * MAYER POPULATION ANALYSIS *
                      *****************************

  NA   - Mulliken gross atomic population
  ZA   - Total nuclear charge
  QA   - Mulliken gross atomic charge
  VA   - Mayer's total valence
  BVA  - Mayer's bonded valence
  FA   - Mayer's free valence

  ATOM       NA         ZA         QA         VA         BVA        FA
  0 O      8.8899     8.0000    -0.8899     1.5524     1.5524     0.0000
  1 H      0.5546     1.0000     0.4454     0.7663     0.7663    -0.0000
  2 H      0.5552     1.0000     0.4448     0.7664     0.7664    -0.0000
  3 O      8.8924     8.0000    -0.8924     1.5511     1.5511     0.0000
  4 H      0.5499     1.0000     0.4501     0.7638     0.7638     0.0000
  5 H      0.5571     1.0000     0.4429     0.7684     0.7684    -0.0000
  6 O      8.8939     8.0000    -0.8939     1.5487     1.5487    -0.0000
  7 H      0.5511     1.0000     0.4489     0.7661     0.7661    -0.0000
  8 H      0.5567     1.0000     0.4433     0.7687     0.7687    -0.0000
  9 O      8.8893     8.0000    -0.8893     1.5534     1.5534     0.0000
 10 H      0.5526     1.0000     0.4474     0.7647     0.7647    -0.0000
 11 H      0.5573     1.0000     0.4427     0.7679     0.7679    -0.0000

  Mayer bond orders larger than 0.100000
B(  0-O ,  1-H ) :   0.7759 B(  0-O ,  2-H ) :   0.7760 B(  3-O ,  4-H ) :   0.7688 
B(  3-O ,  5-H ) :   0.7776 B(  6-O ,  7-H ) :   0.7699 B(  6-O ,  8-H ) :   0.7769 
B(  9-O , 10-H ) :   0.7743 B(  9-O , 11-H ) :   0.7773 

-------
TIMINGS
-------

Total SCF time: 0 days 0 hours 0 min 1 sec 

Total time                  ....       1.530 sec
Sum of individual times     ....       1.451 sec  ( 94.8%)

SCF preparation             ....       0.061 sec  (  4.0%)
Fock matrix formation       ....       1.136 sec  ( 74.2%)
  Startup                   ....       0.027 sec  (  2.3% of F)
  Coulomb+Exchange Fock     ....       1.037 sec  ( 91.3% of F)
Diagonalization             ....       0.000 sec  (  0.0%)
Density matrix formation    ....       0.070 sec  (  4.6%)
Total Energy calculation    ....       0.015 sec  (  0.9%)
Population analysis         ....       0.016 sec  (  1.1%)
Orbital Transformation      ....       0.016 sec  (  1.0%)
Orbital Orthonormalization  ....       0.000 sec  (  0.0%)
DIIS solution               ....       0.092 sec  (  6.0%)
SOSCF solution              ....       0.046 sec  (  3.0%)
Finished LeanSCF after   1.5 sec

Maximum memory used throughout the entire LEANSCF-calculation: 8.1 MB

-------------------------   --------------------
FINAL SINGLE POINT ENERGY      -303.981115904738
-------------------------   --------------------

------------------------------------------------------------------------------
                         ORCA SCF GRADIENT CALCULATION
------------------------------------------------------------------------------

Nuc. rep. gradient        (SHARK) ... done (  0.0 sec)
HCore & Overlap gradient  (SHARK) ... done (  0.0 sec)
Two-electron gradient     (SHARK) ... done (  0.4 sec)

------------------
CARTESIAN GRADIENT
------------------

   1   O   :    0.097495913    0.012556865    0.077189498
   2   H   :   -0.048223420    0.086783713   -0.054423895
   3   H   :   -0.048570724   -0.099864192   -0.022627505
   4   O   :   -0.042456957   -0.098168896    0.064165628
   5   H   :   -0.065193394    0.088936554   -0.029710861
   6   H   :    0.107138582    0.010676663   -0.034296370
   7   O   :   -0.088628587    0.055982019    0.068756928
   8   H   :    0.007890934    0.010255987   -0.112523168
   9   H   :    0.080754626   -0.066108982    0.043595902
  10   O   :   -0.115846028   -0.005325246    0.046339228
  11   H   :    0.088017729    0.045940408    0.055112755
  12   H   :    0.027621325   -0.041664891   -0.101578141

Difference to translation invariance:
           :   -0.0000000000   -0.0000000000   -0.0000000001

Difference to rotation invariance:
           :   -0.0000002003   -0.0000002905    0.0000001471

Norm of the Cartesian gradient     ...    0.4065691755
RMS gradient                       ...    0.0677615292
MAX gradient                       ...    0.1158460285

-------
TIMINGS
-------

Total SCF gradient time     ....        0.471 sec

Densities                   ....       0.000 sec  (  0.0%)
One electron gradient       ....       0.036 sec  (  7.7%)
Two electron gradient       ....       0.434 sec  ( 92.2%)

Maximum memory used throughout the entire SCFGRAD-calculation: 14.0 MB

------------------------------------------------------------------------------
                              ORCA PROPERTY CALCULATIONS
------------------------------------------------------------------------------

GBWName                                 ... frag.gbw
Number of atoms                         ...     12
Number of basis functions               ...     72
Max core memory                         ...   1024 MB

Electric properties:
Dipole moment                           ... YES
Quadrupole moment                       ...  NO
Static polarizability (Dipole/Dipole)   ...  NO
Static polarizability (Dipole/Quad.)    ...  NO
Static polarizability (Quad./Quad.)     ...  NO
Static polarizability (Velocity)        ...  NO

Atomic electric properties:
Dipole moment                           ...  NO
Quadrupole moment                       ...  NO
Static polarizability                   ...  NO

Choice of electric origin               ... Center of mass
Position of electric origin             ...    40.288395    89.472632    75.404596

General magnetic properties:
Magnetizability                         ...  NO

EPR properties:
g-Tensor (aka g-matrix)                 ...  NO
Zero-Field splitting spin-orbit         ...  NO
Zero-field splitting spin-spin          ...  NO
Hyperfine couplings                     ...  NO (   0 nuclei)
Quadrupole couplings                    ...  NO (   0 nuclei)
Contact density                         ...  NO (   0 nuclei)

NMR properties:
Chemical shifts                         ...  NO (   0 nuclei)
Spin-rotation constants                 ...  NO (   0 nuclei)
Spin-spin couplings                     ...  NO (   0 nuclei,    0 pairs)

Choice of magnetic origin               ... GIAO
Position of magnetic origin             ...     0.000000     0.000000     0.000000

Properties with geometric perturbations:
SCF Hessian                             ...  NO
IR spectrum                             ...  NO
VCD spectrum                            ...  NO
X-ray spectroscopy properties:
SCF XES/XAS/RIXS spectra                ...  NO


-------------
DIPOLE MOMENT
-------------

Method             : SCF
Type of density    : Electron Density
Multiplicity       :   1
Irrep              :   0
Energy             :  -303.9811159047378055 Eh
Relativity type    : 
Basis              : AO
                                X                 Y                 Z
Electronic contribution:      0.066354927      -0.004650872      -0.088022151
Nuclear contribution   :     -1.087104610      -0.229240443       1.835313586
                        -----------------------------------------
Total Dipole Moment    :     -1.020749682      -0.233891315       1.747291435
                        -----------------------------------------
Magnitude (a.u.)       :      2.037072022
Magnitude (Debye)      :      5.177825590



--------------------
Rotational spectrum 
--------------------
 
Rotational constants in cm-1:             0.056499             0.042372             0.037621 
Rotational constants in MHz :          1693.801309          1270.266086          1127.856369 

Dipole components along the rotational axes: 
x,y,z [a.u.] :     0.416602     1.504838     1.308269 
x,y,z [Debye]:     1.058918     3.824994     3.325356 

 

Dipole moment calculation done in   0.0 sec 

Maximum memory used throughout the entire PROP-calculation: 2.6 MB

--------------------------------
SUGGESTED CITATIONS FOR THIS RUN
--------------------------------

Below you find a list of papers that are relevant to this ORCA run
We neither can nor want to force you to cite these papers, but we appreciate if you do
You receive ORCA, which is the product of decades of hard work by many enthusiastic individuals, for free
The only thing we kindly ask in return is that you cite our papers,
We deeply appreciate it, if you show your appreciation for ORCA by not just citing the generic ORCA reference.

Please note that relegating all ORCA citations to the supporting information does *not* help us.
SI sections are not indexed - citations you put there will not count into any citation statistics
But we need these citations in order to attract the funding resources that allow us to do what we are doing

Therefore, if you are a happy ORCA user, please consider citing a few of the papers listed below in the main body of your paper

In addition to the list printed below, the program has created the file frag.bibtex that contains the list in bibtex format
You can import this file easily into all common literature databanks and citation aid programs


List of essential papers. We consider these as the minimum necessary citations

  1. Neese,F.
     Software update: the ORCA program system, version 5.0
     WIRES Comput. Molec. Sci., 2022 12(1)e1606
     doi.org/10.1002/wcms.1606

List of papers to cite with high priority. The work reported in these papers was absolutely
necessary for this run to complete.
Our perspective: the developers of density functionals and basis sets usually get cited in chemistry papers
Good! But without the algorithms to do something with them, the functionals or basis sets would not do anything.
Hence, in our opinion, the algorithm design and method developments papers are equally worthy of getting cited

  1. Neese,F.
     The SHARK Integral Generation and Digestion System
     J. Comp. Chem., 2022  1-16
     doi.org/10.1002/jcc.26942

List of suggested additional citations. These are papers that are important in the 'surrounding' of 
of this run, or papers that preceded the highly important papers. If you like your results we are grateful for a citation.

  1. Neese,F.
     The ORCA program system
     WIRES Comput. Molec. Sci., 2012 2(1)73-78
     doi.org/10.1002/wcms.81
  2. Neese,F.
     Software update: the ORCA program system, version 4.0
     WIRES Comput. Molec. Sci., 2018 8(1)1-6
     doi.org/10.1002/wcms.1327
  3. Neese,F.; Wennmohs,F.; Becker,U.; Riplinger,C.
     The ORCA quantum chemistry program package
     J. Chem. Phys., 2020 152 Art. No. L224108
     doi.org/10.1063/5.0004608

List of optional additional citations

  1. Neese,F.
     Approximate second-order SCF convergence for spin unrestricted wavefunctions
     Chem. Phys. Lett., 2000 325(1-3)93-98
     doi.org/10.1016/s0009-2614(00)00662-x

Timings for individual modules:

Sum of individual times          ...        2.901 sec (=   0.048 min)
Startup calculation              ...        0.504 sec (=   0.008 min)  17.4 %
SCF iterations                   ...        1.789 sec (=   0.030 min)  61.7 %
Property calculations            ...        0.063 sec (=   0.001 min)   2.2 %
SCF Gradient evaluation          ...        0.544 sec (=   0.009 min)  18.8 %
                             ****ORCA TERMINATED NORMALLY****
TOTAL RUN TIME: 0 days 0 hours 0 minutes 3 seconds 220 msec
