
                                 *****************
                                 * O   R   C   A *
                                 *****************

                                            #,                                       
                                            ###                                      
                                            ####                                     
                                            #####                                    
                                            ######                                   
                                           ########,                                 
                                     ,,################,,,,,                         
                               ,,#################################,,                 
                          ,,##########################################,,             
                       ,#########################################, ''#####,          
                    ,#############################################,,   '####,        
                  ,##################################################,,,,####,       
                ,###########''''           ''''###############################       
              ,#####''   ,,,,##########,,,,          '''####'''          '####       
            ,##' ,,,,###########################,,,                        '##       
           ' ,,###''''                  '''############,,,                           
         ,,##''                                '''############,,,,        ,,,,,,###''
      ,#''                                            '''#######################'''  
     '                                                          ''''####''''         
             ,#######,   #######,   ,#######,      ##                                
            ,#'     '#,  ##    ##  ,#'     '#,    #''#        ,####,   ,####,        
            ##       ##  ##   ,#'  ##            #'  '#       #'       #'  '#        
            ##       ##  #######   ##           ,######,      #####,   #    #        
            '#,     ,#'  ##    ##  '#,     ,#' ,#      #,     #,   #   #,  ,#        
             '#######'   ##     ##  '#######'  #'      '#     '####' # '####'        



                #########################################################
                #                        -***-                          #
                #          Department of theory and spectroscopy        #
                #                                                       #
                #                      Frank Neese                      #
                #                                                       #
                #     Directorship, Architecture, Infrastructure        #
                #                    SHARK, DRIVERS                     #
                #        Core code/Algorithms in most modules           #
                #                                                       #
                #        Max Planck Institute fuer Kohlenforschung      #
                #                Kaiser Wilhelm Platz 1                 #
                #                 D-45470 Muelheim/Ruhr                 #
                #                      Germany                          #
                #                                                       #
                #                  All rights reserved                  #
                #                        -***-                          #
                #########################################################


                         Program Version 6.0.1  -  RELEASE   -


 With contributions from (in alphabetic order):
[Max-Planck-Institut fuer Kohlenforschung]                               
  Daniel Aravena         : Magnetic Suceptibility                        
  Michael Atanasov       : Ab Initio Ligand Field Theory (pilot matlab implementation)
  Alexander A. Auer      : GIAO ZORA, VPT2 properties, NMR spectrum      
  Ute Becker             : All parallelization in ORCA, NUMFREQ, NUMCALC 
  Giovanni Bistoni       : ED, misc. LED, open-shell LED, HFLD           
  Martin Brehm           : Molecular dynamics                            
  Dmytro Bykov           : pre 5.0 version of the SCF Hessian            
  Marcos Casanova-Páez   : Triplet and SCS-CIS(D). UHF-(DLPNO)-IP/EA/STEOM-CCSD. UHF-CVS-IP/STEOM-CCSD   
  Vijay G. Chilkuri      : MRCI spin determinant printing, contributions to CSF-ICE 
  Pauline Colinet        : FMM embedding                                 
  Dipayan Datta          : RHF DLPNO-CCSD density                        
  Achintya Kumar Dutta   : EOM-CC, STEOM-CC                              
  Nicolas Foglia         : Exact transition moments, OPA infrastructure, MCD improvements    
  Dmitry Ganyushin       : Spin-Orbit,Spin-Spin,Magnetic field MRCI      
  Miquel Garcia-Rates    : C-PCM and meta-GGA Hessian, CCSD/C-PCM, Gaussian charge scheme 
  Tiago L. C. Gouveia    : GS-ROHF, GS-ROCIS                             
  Yang Guo               : DLPNO-NEVPT2, F12-NEVPT2, CIM, IAO-localization        
  Andreas Hansen         : Spin unrestricted coupled pair/coupled cluster methods 
  Ingolf Harden          : AUTO-CI MPn and infrastructure                
  Benjamin Helmich-Paris : MC-RPA, TRAH-(SCF,CASSCF), AVAS, COSX integrals, SCF dyn. polar. 
  Lee Huntington         : MR-EOM, pCC                                   
  Robert Izsak           : Overlap fitted RIJCOSX, COSX-SCS-MP3, EOM     
  Riya Kayal             : Wick's Theorem for AUTO-CI, AUTO-CI UHF-CCSDT 
  Emily Kempfer          : AUTO-CI, RHF CISDT and CCSDT                  
  Christian Kollmar      : KDIIS, OOCD, Brueckner-CCSD(T), CCSD density, CASPT2, CASPT2-K, improved NEVPT2 
  Axel Koslowski         : Symmetry handling                             
  Simone Kossmann        : meta-GGA functionals, TD-DFT gradient, OOMP2, (MP2 Hessian; deprecated post 5.0) 
  Lucas Lang             : DCDCAS                                        
  Marvin Lechner         : AUTO-CI (C++ implementation), FIC-MRCC        
  Spencer Leger          : CASSCF response                               
  Dagmar Lenk            : GEPOL surface, SMD, ORCA-2-JSON               
  Dimitrios Liakos       : Extrapolation schemes; Compound Job, initial MDCI parallelization 
  Dimitrios Manganas     : Further ROCIS development; embedding schemes. LFT, Crystal Embedding 
  Dimitrios Pantazis     : SARC Basis sets                               
  Anastasios Papadopoulos: AUTO-CI, single reference methods and gradients 
  Taras Petrenko         : pre 6.0 DFT Hessian and TD-DFT gradient, (ASA, deprecated), ECA, 1-Electron XAS/XES, NRVS 
  Peter Pinski           : DLPNO-MP2, DLPNO-MP2 Gradient                 
  Christoph Reimann      : Effective Core Potentials                     
  Marius Retegan         : Local ZFS, SOC                                
  Christoph Riplinger    : Optimizer, TS searches, QM/MM, DLPNO-CCSD(T), (RO)-DLPNO pert. Triples 
  Michael Roemelt        : Original ROCIS implementation                 
  Masaaki Saitow         : Open-shell DLPNO-CCSD energy and density      
  Barbara Sandhoefer     : DKH picture change effects                    
  Kantharuban Sivalingam : CASSCF convergence/infrastructure, NEVPT2 and variants, FIC-MRCI 
  Bernardo de Souza      : ESD, SOC TD-DFT                               
  Georgi L. Stoychev     : AutoAux, RI-MP2 NMR, DLPNO-MP2 response, X2C  
  Van Anh Tran           : RI-MP2 g-tensors                              
  Willem Van den Heuvel  : Paramagnetic NMR                              
  Zikuan Wang            : NOTCH, Electric field optimization            
  Frank Wennmohs         : Technical directorship and infrastructure     
  Hang Xu                : AUTO-CI-Response properties                   
                                                                         
[FACCTs GmbH]                                                            
  Markus Bursch, Miquel Garcia-Rates, Christoph Riplinger, Bernardo de Souza, Georgi L. Stoychev 
                                                                 
  APM, Basis sets (HGBS, AHGBS, def-TZVP (Ac-Lr), def2-XVPD (La-Lu)), CI-OPT, improved COSX, DLPNO-Multilevel,           
  DOCKER, DRACO, updates on ESD, GOAT, IRC, LR-CPCM, MBIS, meta-GGA TD-DFT gradient, ML-optimized integration grids, 
  MM, NACMEs, nearIR, NEB, NEB-TS, NL-DFT gradient (VV10), 2- and 3-layer-ONIOM, interface openCOSMO-RS, QMMM,   
  Crystal-QMMM, SF, symmetry and pop. for TD-DFT, r2SCAN hybrids, SOLVATOR                                   
                                                                         
[Other institutions]                                                     
  V. Asgeirsson          : NEB                                           
  Christoph Bannwarth    : sTDA-DFT, sTD-DFT, PBEh-3c, B97-3c, D3        
  Sebastian Ehlert       : rSCAN, r2SCAN, r2SCAN-3c, D4, dhf basis sets  
  Marvin Friede          : D4 for Fr, Ra, Ac-Lr                          
  Lars Goerigk           : TD-DFT with DH, B97 family of functionals     
  Stefan Grimme          : VdW corrections, initial TS optimization, DFT functionals, gCP, sTDA/sTD-DF 
  Waldemar Hujo          : DFT-NL                                        
  H. Jonsson             : NEB                                           
  Holger Kruse           : gCP                                           
  Marcel Mueller         : wB97X-3c, vDZP basis set                      
  Hagen Neugebauer       : wr2SCAN                                       
  Tobias Risthaus        : range-separated hybrid DFT                    
  Lukas Wittmann         : regularized MP2, r2SCAN double-hybrids, wr2SCAN        
                                                                         
We gratefully acknowledge several colleagues who have allowed us to      
interface, adapt or use parts of their codes:                            
  Ed Valeev, F. Pavosevic, A. Kumar             : LibInt (2-el integral package), F12 methods 
  Garnet Chan, S. Sharma, J. Yang, R. Olivares  : DMRG                   
  Ulf Ekstrom                                   : XCFun DFT Library      
  Mihaly Kallay                                 : mrcc  (arbitrary order and MRCC methods)
  Frank Weinhold                                : gennbo (NPA and NBO analysis)           
  Simon Mueller                                 : openCOSMO-RS                            
  Christopher J. Cramer and Donald G. Truhlar   : smd solvation model                     
  S Lehtola, MJT Oliveira, MAL Marques          : LibXC Library                           
  Liviu Ungur et al                             : ANISO software                          


 Your calculation uses the libint2 library for the computation of 2-el integrals
 For citations please refer to: http://libint.valeyev.net

 Your ORCA version has been built with support for libXC version: 6.2.2
 For citations please refer to: https://libxc.gitlab.io

 This ORCA versions uses:
   CBLAS   interface :  Fast vector & matrix operations
   LAPACKE interface :  Fast linear algebra routines
   SCALAPACK package :  Parallel linear algebra routines
   Shared memory     :  Shared parallel matrices
   BLAS/LAPACK       :  OpenBLAS 0.3.27  USE64BITINT DYNAMIC_ARCH NO_AFFINITY SkylakeX SINGLE_THREADED
        Core in use  :  SkylakeX
   Copyright (c) 2011-2014, The OpenBLAS Project


================================================================================

----- Orbital basis set information -----
Your calculation utilizes the basis: 6-31G*
   H-He, Li-Ne : W. J. Hehre, R. Ditchfield and J.A. Pople, J. Chem. Phys. 56, 2257 (1972).
                 Note: He and Ne are unpublished basis sets taken from the Gaussian program.
                 Note: Li and B from J. D. Dill and J. A. Pople, J. Chem. Phys. 62, 2921 (1975).
   Na - Ar     : M. M. Francl, W. J. Pietro, W. J. Hehre, J. S. Binkley, M. S. Gordon, 
                 D. J. DeFrees and J. A. Pople, J. Chem. Phys. 77, 3654 (1982).
   K - Zn      : V. A. Rassolov, J. A. Pople, M. A. Ratner, and T. L. Windus, J. Chem. Phys. 109, 1223 (1998).

================================================================================
                                        WARNINGS
                       Please study these warnings very carefully!
================================================================================


================================================================================
                                       INPUT FILE
================================================================================
NAME = frag.inp
|  1> !HF 6-31G* EnGrad
|  2> %pal nprocs 1 end
|  3> *xyz 0 1
|  4> O 21.31548000 47.19077000 40.87238000
|  5> H 22.11097000 46.98487000 41.16553000
|  6> H 20.96265000 46.41737000 40.67613000
|  7> O 24.10596000 46.93173000 41.50917000
|  8> H 24.52341000 46.31399000 41.96223000
|  9> H 24.52212000 47.66562000 41.73132000
| 10> O 20.35232000 49.63574000 40.01023000
| 11> H 20.79050000 48.92392000 40.26012000
| 12> H 19.54326000 49.49202000 40.30334000
| 13> O 19.10373000 45.58535000 40.48424000
| 14> H 18.38270000 45.25544000 40.12036000
| 15> H 18.82331000 45.89664000 41.24949000
| 16> *
| 17> 
| 18>                          ****END OF INPUT****
================================================================================

                     *******************************
                     * Energy+Gradient Calculation *
                     *******************************

---------------------------------
CARTESIAN COORDINATES (ANGSTROEM)
---------------------------------
  O     21.315480   47.190770   40.872380
  H     22.110970   46.984870   41.165530
  H     20.962650   46.417370   40.676130
  O     24.105960   46.931730   41.509170
  H     24.523410   46.313990   41.962230
  H     24.522120   47.665620   41.731320
  O     20.352320   49.635740   40.010230
  H     20.790500   48.923920   40.260120
  H     19.543260   49.492020   40.303340
  O     19.103730   45.585350   40.484240
  H     18.382700   45.255440   40.120360
  H     18.823310   45.896640   41.249490

----------------------------
CARTESIAN COORDINATES (A.U.)
----------------------------
  NO LB      ZA    FRAG     MASS         X           Y           Z
   0 O     8.0000    0    15.999   40.280420   89.177631   77.237605
   1 H     1.0000    0     1.008   41.783678   88.788537   77.791578
   2 H     1.0000    0     1.008   39.613668   87.716117   76.866746
   3 O     8.0000    0    15.999   45.553663   88.688117   78.440963
   4 H     1.0000    0     1.008   46.342529   87.520757   79.297123
   5 H     1.0000    0     1.008   46.340091   90.074968   78.860766
   6 O     8.0000    0    15.999   38.460311   93.797955   75.608377
   7 H     1.0000    0     1.008   39.288351   92.452810   76.080601
   8 H     1.0000    0     1.008   36.931409   93.526364   76.162275
   9 O     8.0000    0    15.999   36.100818   86.143827   76.504126
  10 H     1.0000    0     1.008   34.738269   85.520388   75.816493
  11 H     1.0000    0     1.008   35.570901   86.732080   77.950239

--------------------------------
INTERNAL COORDINATES (ANGSTROEM)
--------------------------------
 O      0   0   0     0.000000000000     0.00000000     0.00000000
 H      1   0   0     0.872431127712     0.00000000     0.00000000
 H      1   2   0     0.872439471482   103.59872274     0.00000000
 O      2   1   3     2.025067260439   164.04508453   134.49752923
 H      4   2   1     0.872427976225   125.31625843   188.06283548
 H      4   2   1     0.872430111929   119.41048032    51.16069882
 O      1   2   3     2.765656903703   129.11896367   197.01747687
 H      7   1   2     0.872430190273     9.76862677    18.30230780
 H      7   1   2     0.872437386922    94.16296827   213.12954087
 O      3   1   2     2.045644792944   138.51760024   155.95761940
 H     10   3   1     0.872429666735   160.72623553   104.87007073
 H     10   3   1     0.872435901944    93.70851241   310.81868034

---------------------------
INTERNAL COORDINATES (A.U.)
---------------------------
 O      0   0   0     0.000000000000     0.00000000     0.00000000
 H      1   0   0     1.648655902083     0.00000000     0.00000000
 H      1   2   0     1.648671669524   103.59872274     0.00000000
 O      2   1   3     3.826822524999   164.04508453   134.49752923
 H      4   2   1     1.648649946636   125.31625843   188.06283548
 H      4   2   1     1.648653982532   119.41048032    51.16069882
 O      1   2   3     5.226334128387   129.11896367   197.01747687
 H      7   1   2     1.648654130581     9.76862677    18.30230780
 H      7   1   2     1.648667730277    94.16296827   213.12954087
 O      3   1   2     3.865708425947   138.51760024   155.95761940
 H     10   3   1     1.648653141238   160.72623553   104.87007073
 H     10   3   1     1.648664924074    93.70851241   310.81868034

---------------------
BASIS SET INFORMATION
---------------------
There are 2 groups of distinct atoms

 Group   1 Type O   : 10s4p1d contracted to 3s2p1d pattern {631/31/1}
 Group   2 Type H   : 4s contracted to 2s pattern {31}

Atom   0O    basis set group =>   1
Atom   1H    basis set group =>   2
Atom   2H    basis set group =>   2
Atom   3O    basis set group =>   1
Atom   4H    basis set group =>   2
Atom   5H    basis set group =>   2
Atom   6O    basis set group =>   1
Atom   7H    basis set group =>   2
Atom   8H    basis set group =>   2
Atom   9O    basis set group =>   1
Atom  10H    basis set group =>   2
Atom  11H    basis set group =>   2
------------------------------------------------------------------------------
                             ORCA STARTUP CALCULATIONS
------------------------------------------------------------------------------
------------------------------------------------------------------------------
                   ___                                                        
                  /   \      - P O W E R E D   B Y -                         
                 /     \                                                     
                 |  |  |   _    _      __       _____    __    __             
                 |  |  |  | |  | |    /  \     |  _  \  |  |  /  |          
                  \  \/   | |  | |   /    \    | | | |  |  | /  /          
                 / \  \   | |__| |  /  /\  \   | |_| |  |  |/  /          
                |  |  |   |  __  | /  /__\  \  |    /   |      \           
                |  |  |   | |  | | |   __   |  |    \   |  |\   \          
                \     /   | |  | | |  |  |  |  | |\  \  |  | \   \       
                 \___/    |_|  |_| |__|  |__|  |_| \__\ |__|  \__/        
                                                                              
                      - O R C A' S   B I G   F R I E N D -                    
                                      &                                       
                       - I N T E G R A L  F E E D E R -                       
                                                                              
 v1 FN, 2020, v2 2021, v3 2022-2024                                           
------------------------------------------------------------------------------


----------------------
SHARK INTEGRAL PACKAGE
----------------------

Number of atoms                             ...     12
Number of basis functions                   ...     72
Number of shells                            ...     40
Maximum angular momentum                    ...      2
Integral batch strategy                     ... SHARK/LIBINT Hybrid
RI-J (if used) integral strategy            ... SPLIT-RIJ (Revised 2003 algorithm where possible)
Printlevel                                  ...      1
Contraction scheme used                     ... SEGMENTED contraction
Prescreening option                         ... SCHWARTZ
   Thresh                                   ... 2.500e-11
   Tcut                                     ... 2.500e-12
   Tpresel                                  ... 2.500e-12 
Coulomb Range Separation                    ... NOT USED
Exchange Range Separation                   ... NOT USED
Multipole approximations                    ... NOT USED
Finite Nucleus Model                        ... NOT USED
CABS basis                                  ... NOT available
Auxiliary Coulomb fitting basis             ... NOT available
Auxiliary J/K fitting basis                 ... NOT available
Auxiliary Correlation fitting basis         ... NOT available
Auxiliary 'external' fitting basis          ... NOT available

Checking pre-screening integrals            ... done (  0.0 sec) Dimension = 40
Check shell pair data                       ... done (  0.0 sec)
Shell pair information
Shell pair cut-off parameter TPreSel        ...   2.5e-12
Total number of shell pairs                 ...       820
Shell pairs after pre-screening             ...       728
Total number of primitive shell pairs       ...      4386
Primitive shell pairs kept                  ...      2610
          la=0 lb=0:    360 shell pairs
          la=1 lb=0:    204 shell pairs
          la=1 lb=1:     33 shell pairs
          la=2 lb=0:     95 shell pairs
          la=2 lb=1:     28 shell pairs
          la=2 lb=2:      8 shell pairs

Calculating one electron integrals          ... done (  0.0 sec)
Calculating Nuclear repulsion               ... done (  0.0 sec) ENN=    129.816718470386 Eh

Diagonalization of the overlap matrix:
Smallest eigenvalue                        ... 2.946e-02
Time for diagonalization                   ...    0.002 sec
Threshold for overlap eigenvalues          ... 1.000e-07
Number of eigenvalues below threshold      ... 0
Time for construction of square roots      ...    0.005 sec
Total time needed                          ...    0.010 sec

-------------------
DFT GRID GENERATION
-------------------

General Integration Accuracy     IntAcc      ... 4.388
Radial Grid Type                 RadialGrid  ... OptM3 with GC (2021)
Angular Grid (max. ang.)         AngularGrid ... 4 (Lebedev-302)
Angular grid pruning method      GridPruning ... 4 (adaptive)
Weight generation scheme         WeightScheme... mBecke (2022)
Basis function cutoff            BFCut       ... 1.0000e-11
Integration weight cutoff        WCut        ... 1.0000e-14
Partially contracted basis set               ... off
Rotationally invariant grid construction     ... off
Angular grids for H and He will be reduced by one unit

Total number of grid points                  ...    50709
Total number of batches                      ...      798
Average number of points per batch           ...       63
Average number of grid points per atom       ...     4226
Initializing property integral containers    ... done (  0.0 sec)

SHARK setup successfully completed in   0.5 seconds

Maximum memory used throughout the entire STARTUP-calculation: 17.4 MB
-------------------------------------------------------------------------------
                                 ORCA GUESS
                   Start orbitals & Density for SCF / CASSCF
-------------------------------------------------------------------------------

------------
SCF SETTINGS
------------
Hamiltonian:
 Ab initio Hamiltonian  Method          .... Hartree-Fock(GTOs)


General Settings:
 Integral files         IntName         .... frag
 Hartree-Fock type      HFTyp           .... RHF
 Total Charge           Charge          ....    0
 Multiplicity           Mult            ....    1
 Number of Electrons    NEL             ....   40
 Basis Dimension        Dim             ....   72
 Nuclear Repulsion      ENuc            ....    129.8167184704 Eh

Convergence Acceleration:
 AO-DIIS                CNVDIIS         .... on
   Start iteration      DIISMaxIt       ....    12
   Startup error        DIISStart       ....  0.200000
   # of expansion vecs  DIISMaxEq       ....     5
   Bias factor          DIISBfac        ....   1.050
   Max. coefficient     DIISMaxC        ....  10.000
 MO-DIIS                CNVKDIIS        .... off
 Trust-Rad. Augm. Hess. CNVTRAH         .... auto
   Auto Start mean grad. ratio tolernc. ....  1.125000
   Auto Start start iteration           ....    50
   Auto Start num. interpolation iter.  ....    10
   Max. Number of Micro iterations      ....    24
   Max. Number of Macro iterations      .... Maxiter - #DIIS iter
   Number of Davidson start vectors     ....     2
   Converg. threshold    (grad. norm)   ....   1.000e-05
   Grad. Scal. Fac. for Micro threshold ....   0.100
   Minimum threshold for Micro iter.    ....   1.000e-02
   NR start threshold (gradient norm)   ....   1.000e-04
   Initial trust radius                 ....   0.400
   Minimum AH scaling param. (alpha)    ....   1.000
   Maximum AH scaling param. (alpha)    .... 1000.000
   Quad. conv. algorithm                .... NR
   White noise on init. David. guess    .... on
   Maximum white noise                  ....   0.010
   Pseudo random numbers                .... off
   Inactive MOs                         .... canonical
   Orbital update algorithm             .... Taylor
   Preconditioner                       .... Diag
   Full preconditioner red. dimension   ....   250
 SOSCF                  CNVSOSCF        .... on
   Start iteration      SOSCFMaxIt      ....   150
   Startup grad/error   SOSCFStart      ....  0.003300
   Hessian update       SOSCFHessUp     .... L-BFGS
 Level Shifting         CNVShift        .... on
   Level shift para.    LevelShift      ....    0.2500
   Turn off err/grad.   ShiftErr        ....    0.0010
 Zerner damping         CNVZerner       .... off
 Static damping         CNVDamp         .... on
   Fraction old density DampFac         ....    0.7000
   Max. Damping (<1)    DampMax         ....    0.9800
   Min. Damping (>=0)   DampMin         ....    0.0000
   Turn off err/grad.   DampErr         ....    0.1000

SCF Procedure:
 Maximum # iterations   MaxIter         ....   125
 SCF integral mode      SCFMode         .... Direct
   Integral package                     .... SHARK and LIBINT hybrid scheme
 Reset frequency        DirectResetFreq ....    20
 Integral Threshold     Thresh          ....  2.500e-11 Eh
 Primitive CutOff       TCut            ....  2.500e-12 Eh

Convergence Tolerance:
 Convergence Check Mode ConvCheckMode   .... Total+1el-Energy
 Convergence forced     ConvForced      .... 0
 Energy Change          TolE            ....  1.000e-08 Eh
 1-El. energy change                    ....  1.000e-05 Eh
 Orbital Gradient       TolG            ....  1.000e-05
 Orbital Rotation angle TolX            ....  1.000e-05
 DIIS Error             TolErr          ....  5.000e-07

------------------------------
INITIAL GUESS: MODEL POTENTIAL
------------------------------
Loading Hartree-Fock densities                     ... done
Calculating cut-offs                               ... done
Initializing the effective Hamiltonian             ... done
Setting up the integral package (SHARK)            ... done
Starting the Coulomb interaction                   ... done (   0.0 sec)
Making the grid                                    ... done (   0.1 sec)
Mapping shells                                     ... done
Starting the XC term evaluation                    ... done (   0.0 sec)
Transforming the Hamiltonian                       ... done (   0.0 sec)
Diagonalizing the Hamiltonian                      ... done (   0.0 sec)
Back transforming the eigenvectors                 ... done (   0.0 sec)
Now organizing SCF variables                       ... done
                      ------------------
                      INITIAL GUESS DONE (   0.2 sec)
                      ------------------
             **** ENERGY FILE WAS UPDATED (frag.en.tmp) ****
Finished Guess after   0.2 sec
Maximum memory used throughout the entire GUESS-calculation: 7.4 MB

-------------------------------------------------------------------------------------------
                                      ORCA LEAN-SCF
                              memory conserving SCF solver
-------------------------------------------------------------------------------------------

----------------------------------------D-I-I-S--------------------------------------------
Iteration    Energy (Eh)           Delta-E    RMSDP     MaxDP     DIISErr   Damp  Time(sec)
-------------------------------------------------------------------------------------------
               ***  Starting incremental Fock matrix formation  ***
    1    -303.6134519985107545     0.00e+00  6.08e-03  7.39e-02  3.35e-01  0.700   0.2
    2    -303.7624587784868027    -1.49e-01  4.14e-03  5.09e-02  2.05e-01  0.700   0.2
                               ***Turning on AO-DIIS***
    3    -303.8434341773379401    -8.10e-02  1.68e-03  2.24e-02  1.16e-01  0.700   0.2
    4    -303.8925197639688349    -4.91e-02  1.05e-03  1.44e-02  7.87e-02  0.700   0.2
    5    -303.9249994163499196    -3.25e-02  2.46e-03  3.43e-02  5.59e-02  0.000   0.2
                              *** Initializing SOSCF ***
---------------------------------------S-O-S-C-F--------------------------------------
Iteration    Energy (Eh)           Delta-E    RMSDP     MaxDP     MaxGrad    Time(sec)
--------------------------------------------------------------------------------------
    6    -303.9975139430532636    -7.25e-02  2.05e-04  2.36e-03  3.26e-03     0.2
               *** Restarting incremental Fock matrix formation ***
    7    -303.9975792082038879    -6.53e-05  1.21e-04  1.18e-03  7.35e-04     0.2
    8    -303.9975918920032427    -1.27e-05  8.22e-05  7.54e-04  2.55e-04     0.2
    9    -303.9975940606113909    -2.17e-06  1.19e-05  1.17e-04  7.40e-05     0.1
   10    -303.9975941908855930    -1.30e-07  1.59e-06  1.76e-05  1.09e-05     0.1
   11    -303.9975941932059413    -2.32e-09  6.90e-07  7.08e-06  2.79e-06     0.1
                 **** Energy Check signals convergence ****

               *****************************************************
               *                     SUCCESS                       *
               *           SCF CONVERGED AFTER  11 CYCLES          *
               *****************************************************

             **** ENERGY FILE WAS UPDATED (frag.en.tmp) ****

----------------
TOTAL SCF ENERGY
----------------

Total Energy       :       -303.99759419320594 Eh           -8272.19509 eV

Components:
Nuclear Repulsion  :        129.81671847038595 Eh            3532.49250 eV
Electronic Energy  :       -433.81431266359186 Eh          -11804.68759 eV
One Electron Energy:       -677.71199653222084 Eh          -18441.48097 eV
Two Electron Energy:        243.89768386862897 Eh            6636.79339 eV

Virial components:
Potential Energy   :       -609.57189445691142 Eh          -16587.29453 eV
Kinetic Energy     :        305.57430026370542 Eh            8315.09944 eV
Virial Ratio       :          1.99484018757749

---------------
SCF CONVERGENCE
---------------

  Last Energy change         ...    2.3203e-09  Tolerance :   1.0000e-08
  Last MAX-Density change    ...    7.0800e-06  Tolerance :   1.0000e-07
  Last RMS-Density change    ...    6.8964e-07  Tolerance :   5.0000e-09
  Last DIIS Error            ...    3.2551e-03  Tolerance :   5.0000e-07
  Last Orbital Gradient      ...    2.7918e-06  Tolerance :   1.0000e-05
  Last Orbital Rotation      ...    3.6973e-06  Tolerance :   1.0000e-05


----------------
ORBITAL ENERGIES
----------------

  NO   OCC          E(Eh)            E(eV) 
   0   2.0000     -20.564020      -559.5754 
   1   2.0000     -20.556531      -559.3716 
   2   2.0000     -20.510649      -558.1231 
   3   2.0000     -20.479844      -557.2849 
   4   2.0000      -1.417504       -38.5723 
   5   2.0000      -1.410779       -38.3893 
   6   2.0000      -1.367702       -37.2171 
   7   2.0000      -1.335181       -36.3321 
   8   2.0000      -0.779259       -21.2047 
   9   2.0000      -0.776070       -21.1180 
  10   2.0000      -0.734327       -19.9820 
  11   2.0000      -0.705037       -19.1850 
  12   2.0000      -0.622443       -16.9375 
  13   2.0000      -0.605700       -16.4819 
  14   2.0000      -0.578367       -15.7382 
  15   2.0000      -0.532171       -14.4811 
  16   2.0000      -0.525206       -14.2916 
  17   2.0000      -0.522732       -14.2243 
  18   2.0000      -0.483723       -13.1628 
  19   2.0000      -0.451071       -12.2743 
  20   0.0000       0.208548         5.6749 
  21   0.0000       0.220105         5.9894 
  22   0.0000       0.291251         7.9254 
  23   0.0000       0.310728         8.4553 
  24   0.0000       0.322079         8.7642 
  25   0.0000       0.342488         9.3196 
  26   0.0000       0.469773        12.7832 
  27   0.0000       0.495596        13.4859 
  28   0.0000       1.001688        27.2573 
  29   0.0000       1.028388        27.9838 
  30   0.0000       1.072033        29.1715 
*Only the first 10 virtual orbitals were printed.

                    ********************************
                    * MULLIKEN POPULATION ANALYSIS *
                    ********************************

-----------------------
MULLIKEN ATOMIC CHARGES
-----------------------
   0 O :   -0.978228
   1 H :    0.492528
   2 H :    0.478814
   3 O :   -0.890918
   4 H :    0.451469
   5 H :    0.456968
   6 O :   -0.951391
   7 H :    0.506627
   8 H :    0.423923
   9 O :   -0.894861
  10 H :    0.453385
  11 H :    0.451683
Sum of atomic charges:    0.0000000

--------------------------------
MULLIKEN REDUCED ORBITAL CHARGES
--------------------------------
  0 O s       :     3.858168  s :     3.858168
      pz      :     1.912352  p :     5.089032
      px      :     1.545029
      py      :     1.631652
      dz2     :     0.004202  d :     0.031028
      dxz     :     0.002980
      dyz     :     0.003572
      dx2y2   :     0.012077
      dxy     :     0.008198

  1 H s       :     0.507472  s :     0.507472

  2 H s       :     0.521186  s :     0.521186

  3 O s       :     3.843218  s :     3.843218
      pz      :     1.851424  p :     5.015445
      px      :     1.790682
      py      :     1.373339
      dz2     :     0.003056  d :     0.032255
      dxz     :     0.006684
      dyz     :     0.008586
      dx2y2   :     0.000770
      dxy     :     0.013159

  4 H s       :     0.548531  s :     0.548531

  5 H s       :     0.543032  s :     0.543032

  6 O s       :     3.851063  s :     3.851063
      pz      :     1.917834  p :     5.068007
      px      :     1.418821
      py      :     1.731352
      dz2     :     0.003406  d :     0.032321
      dxz     :     0.006229
      dyz     :     0.005334
      dx2y2   :     0.009563
      dxy     :     0.007789

  7 H s       :     0.493373  s :     0.493373

  8 H s       :     0.576077  s :     0.576077

  9 O s       :     3.844219  s :     3.844219
      pz      :     1.515813  p :     5.018148
      px      :     1.643703
      py      :     1.858632
      dz2     :     0.006802  d :     0.032493
      dxz     :     0.010478
      dyz     :     0.002581
      dx2y2   :     0.005906
      dxy     :     0.006726

 10 H s       :     0.546615  s :     0.546615

 11 H s       :     0.548317  s :     0.548317



                     *******************************
                     * LOEWDIN POPULATION ANALYSIS *
                     *******************************

----------------------
LOEWDIN ATOMIC CHARGES
----------------------
   0 O :   -0.633020
   1 H :    0.308040
   2 H :    0.311941
   3 O :   -0.606759
   4 H :    0.317520
   5 H :    0.321241
   6 O :   -0.650246
   7 H :    0.304654
   8 H :    0.304944
   9 O :   -0.613686
  10 H :    0.317787
  11 H :    0.317583

-------------------------------
LOEWDIN REDUCED ORBITAL CHARGES
-------------------------------
  0 O s       :     3.534912  s :     3.534912
      pz      :     1.911047  p :     5.059940
      px      :     1.523593
      py      :     1.625300
      dz2     :     0.004683  d :     0.038167
      dxz     :     0.003711
      dyz     :     0.004173
      dx2y2   :     0.015184
      dxy     :     0.010417

  1 H s       :     0.691960  s :     0.691960

  2 H s       :     0.688059  s :     0.688059

  3 O s       :     3.547924  s :     3.547924
      pz      :     1.857095  p :     5.018012
      px      :     1.789631
      py      :     1.371285
      dz2     :     0.003639  d :     0.040822
      dxz     :     0.007126
      dyz     :     0.011165
      dx2y2   :     0.001692
      dxy     :     0.017200

  4 H s       :     0.682480  s :     0.682480

  5 H s       :     0.678759  s :     0.678759

  6 O s       :     3.543880  s :     3.543880
      pz      :     1.920335  p :     5.066464
      px      :     1.423544
      py      :     1.722584
      dz2     :     0.003926  d :     0.039902
      dxz     :     0.007884
      dyz     :     0.005494
      dx2y2   :     0.012668
      dxy     :     0.009930

  7 H s       :     0.695346  s :     0.695346

  8 H s       :     0.695056  s :     0.695056

  9 O s       :     3.549745  s :     3.549745
      pz      :     1.517271  p :     5.022758
      px      :     1.649937
      py      :     1.855550
      dz2     :     0.009118  d :     0.041183
      dxz     :     0.013399
      dyz     :     0.003667
      dx2y2   :     0.006665
      dxy     :     0.008335

 10 H s       :     0.682213  s :     0.682213

 11 H s       :     0.682417  s :     0.682417



                      *****************************
                      * MAYER POPULATION ANALYSIS *
                      *****************************

  NA   - Mulliken gross atomic population
  ZA   - Total nuclear charge
  QA   - Mulliken gross atomic charge
  VA   - Mayer's total valence
  BVA  - Mayer's bonded valence
  FA   - Mayer's free valence

  ATOM       NA         ZA         QA         VA         BVA        FA
  0 O      8.9782     8.0000    -0.9782     1.4943     1.4943    -0.0000
  1 H      0.5075     1.0000     0.4925     0.7443     0.7443     0.0000
  2 H      0.5212     1.0000     0.4788     0.7502     0.7502    -0.0000
  3 O      8.8909     8.0000    -0.8909     1.5764     1.5764     0.0000
  4 H      0.5485     1.0000     0.4515     0.7615     0.7615     0.0000
  5 H      0.5430     1.0000     0.4570     0.7577     0.7577     0.0000
  6 O      8.9514     8.0000    -0.9514     1.4911     1.4911    -0.0000
  7 H      0.4934     1.0000     0.5066     0.7334     0.7334    -0.0000
  8 H      0.5761     1.0000     0.4239     0.7857     0.7857    -0.0000
  9 O      8.8949     8.0000    -0.8949     1.5658     1.5658     0.0000
 10 H      0.5466     1.0000     0.4534     0.7616     0.7616     0.0000
 11 H      0.5483     1.0000     0.4517     0.7617     0.7617     0.0000

  Mayer bond orders larger than 0.100000
B(  0-O ,  1-H ) :   0.7083 B(  0-O ,  2-H ) :   0.7272 B(  3-O ,  4-H ) :   0.7694 
B(  3-O ,  5-H ) :   0.7657 B(  6-O ,  7-H ) :   0.6941 B(  6-O ,  8-H ) :   0.7940 
B(  9-O , 10-H ) :   0.7694 B(  9-O , 11-H ) :   0.7671 

-------
TIMINGS
-------

Total SCF time: 0 days 0 hours 0 min 2 sec 

Total time                  ....       2.037 sec
Sum of individual times     ....       1.938 sec  ( 95.1%)

SCF preparation             ....       0.063 sec  (  3.1%)
Fock matrix formation       ....       1.604 sec  ( 78.7%)
  Startup                   ....       0.032 sec  (  2.0% of F)
  Coulomb+Exchange Fock     ....       1.505 sec  ( 93.8% of F)
Diagonalization             ....       0.000 sec  (  0.0%)
Density matrix formation    ....       0.077 sec  (  3.8%)
Total Energy calculation    ....       0.016 sec  (  0.8%)
Population analysis         ....       0.032 sec  (  1.6%)
Orbital Transformation      ....       0.015 sec  (  0.7%)
Orbital Orthonormalization  ....       0.000 sec  (  0.0%)
DIIS solution               ....       0.080 sec  (  3.9%)
SOSCF solution              ....       0.052 sec  (  2.6%)
Finished LeanSCF after   2.1 sec

Maximum memory used throughout the entire LEANSCF-calculation: 8.3 MB

-------------------------   --------------------
FINAL SINGLE POINT ENERGY      -303.997594193206
-------------------------   --------------------

------------------------------------------------------------------------------
                         ORCA SCF GRADIENT CALCULATION
------------------------------------------------------------------------------

Nuc. rep. gradient        (SHARK) ... done (  0.0 sec)
HCore & Overlap gradient  (SHARK) ... done (  0.0 sec)
Two-electron gradient     (SHARK) ... done (  0.6 sec)

------------------
CARTESIAN GRADIENT
------------------

   1   O   :    0.050834107   -0.108523818    0.004805475
   2   H   :   -0.111010412    0.013834085   -0.039149170
   3   H   :    0.057532822    0.094414822    0.033869550
   4   O   :    0.094937156    0.015966879    0.076170082
   5   H   :   -0.048826234    0.087280965   -0.055010471
   6   H   :   -0.047499306   -0.101987759   -0.022225547
   7   O   :   -0.038678813   -0.110319160    0.065433538
   8   H   :   -0.064646863    0.094325973   -0.028791634
   9   H   :    0.104670879    0.012412854   -0.034391603
  10   O   :   -0.112747323    0.001410181    0.044658031
  11   H   :    0.087731857    0.045875672    0.056390687
  12   H   :    0.027702129   -0.044690694   -0.101758938

Difference to translation invariance:
           :   -0.0000000000   -0.0000000000   -0.0000000000

Difference to rotation invariance:
           :    0.0000003501   -0.0000000460    0.0000006674

Norm of the Cartesian gradient     ...    0.4098884016
RMS gradient                       ...    0.0683147336
MAX gradient                       ...    0.1127473227

-------
TIMINGS
-------

Total SCF gradient time     ....        0.596 sec

Densities                   ....       0.000 sec  (  0.0%)
One electron gradient       ....       0.038 sec  (  6.3%)
Two electron gradient       ....       0.558 sec  ( 93.6%)

Maximum memory used throughout the entire SCFGRAD-calculation: 14.2 MB

------------------------------------------------------------------------------
                              ORCA PROPERTY CALCULATIONS
------------------------------------------------------------------------------

GBWName                                 ... frag.gbw
Number of atoms                         ...     12
Number of basis functions               ...     72
Max core memory                         ...   1024 MB

Electric properties:
Dipole moment                           ... YES
Quadrupole moment                       ...  NO
Static polarizability (Dipole/Dipole)   ...  NO
Static polarizability (Dipole/Quad.)    ...  NO
Static polarizability (Quad./Quad.)     ...  NO
Static polarizability (Velocity)        ...  NO

Atomic electric properties:
Dipole moment                           ...  NO
Quadrupole moment                       ...  NO
Static polarizability                   ...  NO

Choice of electric origin               ... Center of mass
Position of electric origin             ...    40.096263    89.405958    76.993142

General magnetic properties:
Magnetizability                         ...  NO

EPR properties:
g-Tensor (aka g-matrix)                 ...  NO
Zero-Field splitting spin-orbit         ...  NO
Zero-field splitting spin-spin          ...  NO
Hyperfine couplings                     ...  NO (   0 nuclei)
Quadrupole couplings                    ...  NO (   0 nuclei)
Contact density                         ...  NO (   0 nuclei)

NMR properties:
Chemical shifts                         ...  NO (   0 nuclei)
Spin-rotation constants                 ...  NO (   0 nuclei)
Spin-spin couplings                     ...  NO (   0 nuclei,    0 pairs)

Choice of magnetic origin               ... GIAO
Position of magnetic origin             ...     0.000000     0.000000     0.000000

Properties with geometric perturbations:
SCF Hessian                             ...  NO
IR spectrum                             ...  NO
VCD spectrum                            ...  NO
X-ray spectroscopy properties:
SCF XES/XAS/RIXS spectra                ...  NO


-------------
DIPOLE MOMENT
-------------

Method             : SCF
Type of density    : Electron Density
Multiplicity       :   1
Irrep              :   0
Energy             :  -303.9975941932059413 Eh
Relativity type    : 
Basis              : AO
                                X                 Y                 Z
Electronic contribution:      0.171954350      -0.148119700      -0.024893646
Nuclear contribution   :     -0.079956563      -1.446068458       1.428730386
                        -----------------------------------------
Total Dipole Moment    :      0.091997787      -1.594188158       1.403836740
                        -----------------------------------------
Magnitude (a.u.)       :      2.126183686
Magnitude (Debye)      :      5.404329441



--------------------
Rotational spectrum 
--------------------
 
Rotational constants in cm-1:             0.105996             0.061412             0.039104 
Rotational constants in MHz :          3177.681245          1841.084670          1172.300298 

Dipole components along the rotational axes: 
x,y,z [a.u.] :    -0.374906    -1.832398     1.011148 
x,y,z [Debye]:    -0.952936    -4.657585     2.570134 

 

Dipole moment calculation done in   0.0 sec 

Maximum memory used throughout the entire PROP-calculation: 2.8 MB

--------------------------------
SUGGESTED CITATIONS FOR THIS RUN
--------------------------------

Below you find a list of papers that are relevant to this ORCA run
We neither can nor want to force you to cite these papers, but we appreciate if you do
You receive ORCA, which is the product of decades of hard work by many enthusiastic individuals, for free
The only thing we kindly ask in return is that you cite our papers,
We deeply appreciate it, if you show your appreciation for ORCA by not just citing the generic ORCA reference.

Please note that relegating all ORCA citations to the supporting information does *not* help us.
SI sections are not indexed - citations you put there will not count into any citation statistics
But we need these citations in order to attract the funding resources that allow us to do what we are doing

Therefore, if you are a happy ORCA user, please consider citing a few of the papers listed below in the main body of your paper

In addition to the list printed below, the program has created the file frag.bibtex that contains the list in bibtex format
You can import this file easily into all common literature databanks and citation aid programs


List of essential papers. We consider these as the minimum necessary citations

  1. Neese,F.
     Software update: the ORCA program system, version 5.0
     WIRES Comput. Molec. Sci., 2022 12(1)e1606
     doi.org/10.1002/wcms.1606

List of papers to cite with high priority. The work reported in these papers was absolutely
necessary for this run to complete.
Our perspective: the developers of density functionals and basis sets usually get cited in chemistry papers
Good! But without the algorithms to do something with them, the functionals or basis sets would not do anything.
Hence, in our opinion, the algorithm design and method developments papers are equally worthy of getting cited

  1. Neese,F.
     The SHARK Integral Generation and Digestion System
     J. Comp. Chem., 2022  1-16
     doi.org/10.1002/jcc.26942

List of suggested additional citations. These are papers that are important in the 'surrounding' of 
of this run, or papers that preceded the highly important papers. If you like your results we are grateful for a citation.

  1. Neese,F.
     The ORCA program system
     WIRES Comput. Molec. Sci., 2012 2(1)73-78
     doi.org/10.1002/wcms.81
  2. Neese,F.
     Software update: the ORCA program system, version 4.0
     WIRES Comput. Molec. Sci., 2018 8(1)1-6
     doi.org/10.1002/wcms.1327
  3. Neese,F.; Wennmohs,F.; Becker,U.; Riplinger,C.
     The ORCA quantum chemistry program package
     J. Chem. Phys., 2020 152 Art. No. L224108
     doi.org/10.1063/5.0004608

List of optional additional citations

  1. Neese,F.
     Approximate second-order SCF convergence for spin unrestricted wavefunctions
     Chem. Phys. Lett., 2000 325(1-3)93-98
     doi.org/10.1016/s0009-2614(00)00662-x

Timings for individual modules:

Sum of individual times          ...        3.555 sec (=   0.059 min)
Startup calculation              ...        0.531 sec (=   0.009 min)  14.9 %
SCF iterations                   ...        2.326 sec (=   0.039 min)  65.4 %
Property calculations            ...        0.048 sec (=   0.001 min)   1.3 %
SCF Gradient evaluation          ...        0.651 sec (=   0.011 min)  18.3 %
                             ****ORCA TERMINATED NORMALLY****
TOTAL RUN TIME: 0 days 0 hours 0 minutes 3 seconds 775 msec
