
                                 *****************
                                 * O   R   C   A *
                                 *****************

                                            #,                                       
                                            ###                                      
                                            ####                                     
                                            #####                                    
                                            ######                                   
                                           ########,                                 
                                     ,,################,,,,,                         
                               ,,#################################,,                 
                          ,,##########################################,,             
                       ,#########################################, ''#####,          
                    ,#############################################,,   '####,        
                  ,##################################################,,,,####,       
                ,###########''''           ''''###############################       
              ,#####''   ,,,,##########,,,,          '''####'''          '####       
            ,##' ,,,,###########################,,,                        '##       
           ' ,,###''''                  '''############,,,                           
         ,,##''                                '''############,,,,        ,,,,,,###''
      ,#''                                            '''#######################'''  
     '                                                          ''''####''''         
             ,#######,   #######,   ,#######,      ##                                
            ,#'     '#,  ##    ##  ,#'     '#,    #''#        ,####,   ,####,        
            ##       ##  ##   ,#'  ##            #'  '#       #'       #'  '#        
            ##       ##  #######   ##           ,######,      #####,   #    #        
            '#,     ,#'  ##    ##  '#,     ,#' ,#      #,     #,   #   #,  ,#        
             '#######'   ##     ##  '#######'  #'      '#     '####' # '####'        



                #########################################################
                #                        -***-                          #
                #          Department of theory and spectroscopy        #
                #                                                       #
                #                      Frank Neese                      #
                #                                                       #
                #     Directorship, Architecture, Infrastructure        #
                #                    SHARK, DRIVERS                     #
                #        Core code/Algorithms in most modules           #
                #                                                       #
                #        Max Planck Institute fuer Kohlenforschung      #
                #                Kaiser Wilhelm Platz 1                 #
                #                 D-45470 Muelheim/Ruhr                 #
                #                      Germany                          #
                #                                                       #
                #                  All rights reserved                  #
                #                        -***-                          #
                #########################################################


                         Program Version 6.0.1  -  RELEASE   -


 With contributions from (in alphabetic order):
[Max-Planck-Institut fuer Kohlenforschung]                               
  Daniel Aravena         : Magnetic Suceptibility                        
  Michael Atanasov       : Ab Initio Ligand Field Theory (pilot matlab implementation)
  Alexander A. Auer      : GIAO ZORA, VPT2 properties, NMR spectrum      
  Ute Becker             : All parallelization in ORCA, NUMFREQ, NUMCALC 
  Giovanni Bistoni       : ED, misc. LED, open-shell LED, HFLD           
  Martin Brehm           : Molecular dynamics                            
  Dmytro Bykov           : pre 5.0 version of the SCF Hessian            
  Marcos Casanova-Páez   : Triplet and SCS-CIS(D). UHF-(DLPNO)-IP/EA/STEOM-CCSD. UHF-CVS-IP/STEOM-CCSD   
  Vijay G. Chilkuri      : MRCI spin determinant printing, contributions to CSF-ICE 
  Pauline Colinet        : FMM embedding                                 
  Dipayan Datta          : RHF DLPNO-CCSD density                        
  Achintya Kumar Dutta   : EOM-CC, STEOM-CC                              
  Nicolas Foglia         : Exact transition moments, OPA infrastructure, MCD improvements    
  Dmitry Ganyushin       : Spin-Orbit,Spin-Spin,Magnetic field MRCI      
  Miquel Garcia-Rates    : C-PCM and meta-GGA Hessian, CCSD/C-PCM, Gaussian charge scheme 
  Tiago L. C. Gouveia    : GS-ROHF, GS-ROCIS                             
  Yang Guo               : DLPNO-NEVPT2, F12-NEVPT2, CIM, IAO-localization        
  Andreas Hansen         : Spin unrestricted coupled pair/coupled cluster methods 
  Ingolf Harden          : AUTO-CI MPn and infrastructure                
  Benjamin Helmich-Paris : MC-RPA, TRAH-(SCF,CASSCF), AVAS, COSX integrals, SCF dyn. polar. 
  Lee Huntington         : MR-EOM, pCC                                   
  Robert Izsak           : Overlap fitted RIJCOSX, COSX-SCS-MP3, EOM     
  Riya Kayal             : Wick's Theorem for AUTO-CI, AUTO-CI UHF-CCSDT 
  Emily Kempfer          : AUTO-CI, RHF CISDT and CCSDT                  
  Christian Kollmar      : KDIIS, OOCD, Brueckner-CCSD(T), CCSD density, CASPT2, CASPT2-K, improved NEVPT2 
  Axel Koslowski         : Symmetry handling                             
  Simone Kossmann        : meta-GGA functionals, TD-DFT gradient, OOMP2, (MP2 Hessian; deprecated post 5.0) 
  Lucas Lang             : DCDCAS                                        
  Marvin Lechner         : AUTO-CI (C++ implementation), FIC-MRCC        
  Spencer Leger          : CASSCF response                               
  Dagmar Lenk            : GEPOL surface, SMD, ORCA-2-JSON               
  Dimitrios Liakos       : Extrapolation schemes; Compound Job, initial MDCI parallelization 
  Dimitrios Manganas     : Further ROCIS development; embedding schemes. LFT, Crystal Embedding 
  Dimitrios Pantazis     : SARC Basis sets                               
  Anastasios Papadopoulos: AUTO-CI, single reference methods and gradients 
  Taras Petrenko         : pre 6.0 DFT Hessian and TD-DFT gradient, (ASA, deprecated), ECA, 1-Electron XAS/XES, NRVS 
  Peter Pinski           : DLPNO-MP2, DLPNO-MP2 Gradient                 
  Christoph Reimann      : Effective Core Potentials                     
  Marius Retegan         : Local ZFS, SOC                                
  Christoph Riplinger    : Optimizer, TS searches, QM/MM, DLPNO-CCSD(T), (RO)-DLPNO pert. Triples 
  Michael Roemelt        : Original ROCIS implementation                 
  Masaaki Saitow         : Open-shell DLPNO-CCSD energy and density      
  Barbara Sandhoefer     : DKH picture change effects                    
  Kantharuban Sivalingam : CASSCF convergence/infrastructure, NEVPT2 and variants, FIC-MRCI 
  Bernardo de Souza      : ESD, SOC TD-DFT                               
  Georgi L. Stoychev     : AutoAux, RI-MP2 NMR, DLPNO-MP2 response, X2C  
  Van Anh Tran           : RI-MP2 g-tensors                              
  Willem Van den Heuvel  : Paramagnetic NMR                              
  Zikuan Wang            : NOTCH, Electric field optimization            
  Frank Wennmohs         : Technical directorship and infrastructure     
  Hang Xu                : AUTO-CI-Response properties                   
                                                                         
[FACCTs GmbH]                                                            
  Markus Bursch, Miquel Garcia-Rates, Christoph Riplinger, Bernardo de Souza, Georgi L. Stoychev 
                                                                 
  APM, Basis sets (HGBS, AHGBS, def-TZVP (Ac-Lr), def2-XVPD (La-Lu)), CI-OPT, improved COSX, DLPNO-Multilevel,           
  DOCKER, DRACO, updates on ESD, GOAT, IRC, LR-CPCM, MBIS, meta-GGA TD-DFT gradient, ML-optimized integration grids, 
  MM, NACMEs, nearIR, NEB, NEB-TS, NL-DFT gradient (VV10), 2- and 3-layer-ONIOM, interface openCOSMO-RS, QMMM,   
  Crystal-QMMM, SF, symmetry and pop. for TD-DFT, r2SCAN hybrids, SOLVATOR                                   
                                                                         
[Other institutions]                                                     
  V. Asgeirsson          : NEB                                           
  Christoph Bannwarth    : sTDA-DFT, sTD-DFT, PBEh-3c, B97-3c, D3        
  Sebastian Ehlert       : rSCAN, r2SCAN, r2SCAN-3c, D4, dhf basis sets  
  Marvin Friede          : D4 for Fr, Ra, Ac-Lr                          
  Lars Goerigk           : TD-DFT with DH, B97 family of functionals     
  Stefan Grimme          : VdW corrections, initial TS optimization, DFT functionals, gCP, sTDA/sTD-DF 
  Waldemar Hujo          : DFT-NL                                        
  H. Jonsson             : NEB                                           
  Holger Kruse           : gCP                                           
  Marcel Mueller         : wB97X-3c, vDZP basis set                      
  Hagen Neugebauer       : wr2SCAN                                       
  Tobias Risthaus        : range-separated hybrid DFT                    
  Lukas Wittmann         : regularized MP2, r2SCAN double-hybrids, wr2SCAN        
                                                                         
We gratefully acknowledge several colleagues who have allowed us to      
interface, adapt or use parts of their codes:                            
  Ed Valeev, F. Pavosevic, A. Kumar             : LibInt (2-el integral package), F12 methods 
  Garnet Chan, S. Sharma, J. Yang, R. Olivares  : DMRG                   
  Ulf Ekstrom                                   : XCFun DFT Library      
  Mihaly Kallay                                 : mrcc  (arbitrary order and MRCC methods)
  Frank Weinhold                                : gennbo (NPA and NBO analysis)           
  Simon Mueller                                 : openCOSMO-RS                            
  Christopher J. Cramer and Donald G. Truhlar   : smd solvation model                     
  S Lehtola, MJT Oliveira, MAL Marques          : LibXC Library                           
  Liviu Ungur et al                             : ANISO software                          


 Your calculation uses the libint2 library for the computation of 2-el integrals
 For citations please refer to: http://libint.valeyev.net

 Your ORCA version has been built with support for libXC version: 6.2.2
 For citations please refer to: https://libxc.gitlab.io

 This ORCA versions uses:
   CBLAS   interface :  Fast vector & matrix operations
   LAPACKE interface :  Fast linear algebra routines
   SCALAPACK package :  Parallel linear algebra routines
   Shared memory     :  Shared parallel matrices
   BLAS/LAPACK       :  OpenBLAS 0.3.27  USE64BITINT DYNAMIC_ARCH NO_AFFINITY SkylakeX SINGLE_THREADED
        Core in use  :  SkylakeX
   Copyright (c) 2011-2014, The OpenBLAS Project


================================================================================

----- Orbital basis set information -----
Your calculation utilizes the basis: 6-31G*
   H-He, Li-Ne : W. J. Hehre, R. Ditchfield and J.A. Pople, J. Chem. Phys. 56, 2257 (1972).
                 Note: He and Ne are unpublished basis sets taken from the Gaussian program.
                 Note: Li and B from J. D. Dill and J. A. Pople, J. Chem. Phys. 62, 2921 (1975).
   Na - Ar     : M. M. Francl, W. J. Pietro, W. J. Hehre, J. S. Binkley, M. S. Gordon, 
                 D. J. DeFrees and J. A. Pople, J. Chem. Phys. 77, 3654 (1982).
   K - Zn      : V. A. Rassolov, J. A. Pople, M. A. Ratner, and T. L. Windus, J. Chem. Phys. 109, 1223 (1998).

================================================================================
                                        WARNINGS
                       Please study these warnings very carefully!
================================================================================


================================================================================
                                       INPUT FILE
================================================================================
NAME = frag.inp
|  1> !HF 6-31G* EnGrad
|  2> %pal nprocs 1 end
|  3> *xyz -1 1
|  4> O 24.10596000 46.93173000 41.50917000
|  5> H 24.52212000 47.66562000 41.73132000
|  6> H 24.52341000 46.31399000 41.96223000
|  7> O 22.25294000 44.28778000 39.87163000
|  8> H 22.68414000 43.83080000 40.47691000
|  9> H 22.81575000 44.91633000 39.64956000
| 10> O 21.99613000 48.36911000 43.54199000
| 11> H 21.97702000 49.24128000 43.53308000
| 12> *
| 13> 
| 14>                          ****END OF INPUT****
================================================================================

                     *******************************
                     * Energy+Gradient Calculation *
                     *******************************

---------------------------------
CARTESIAN COORDINATES (ANGSTROEM)
---------------------------------
  O     24.105960   46.931730   41.509170
  H     24.522120   47.665620   41.731320
  H     24.523410   46.313990   41.962230
  O     22.252940   44.287780   39.871630
  H     22.684140   43.830800   40.476910
  H     22.815750   44.916330   39.649560
  O     21.996130   48.369110   43.541990
  H     21.977020   49.241280   43.533080

----------------------------
CARTESIAN COORDINATES (A.U.)
----------------------------
  NO LB      ZA    FRAG     MASS         X           Y           Z
   0 O     8.0000    0    15.999   45.553663   88.688117   78.440963
   1 H     1.0000    0     1.008   46.340091   90.074968   78.860766
   2 H     1.0000    0     1.008   46.342529   87.520757   79.297123
   3 O     8.0000    0    15.999   42.051962   83.691775   75.346461
   4 H     1.0000    0     1.008   42.866812   82.828208   76.490275
   5 H     1.0000    0     1.008   43.115519   84.879563   74.926810
   6 O     8.0000    0    15.999   41.566662   91.404371   82.282436
   7 H     1.0000    0     1.008   41.530549   93.052534   82.265599

--------------------------------
INTERNAL COORDINATES (ANGSTROEM)
--------------------------------
 O      0   0   0     0.000000000000     0.00000000     0.00000000
 H      1   0   0     0.872430111929     0.00000000     0.00000000
 H      1   2   0     0.872427976225   103.60043743     0.00000000
 O      1   2   3     3.620178445118   166.83143583   210.05331440
 H      4   1   3     0.872426523439    79.38192524     7.15185819
 H      4   1   3     0.872436406565    42.16311252   242.85979500
 O      2   1   3     3.186541935877    87.26422674   254.97016683
 H      7   2   1     0.872424832923   103.43046951   210.28054201

---------------------------
INTERNAL COORDINATES (A.U.)
---------------------------
 O      0   0   0     0.000000000000     0.00000000     0.00000000
 H      1   0   0     1.648653982532     0.00000000     0.00000000
 H      1   2   0     1.648649946636   103.60043743     0.00000000
 O      1   2   3     6.841145817199   166.83143583   210.05331440
 H      4   1   3     1.648647201269    79.38192524     7.15185819
 H      4   1   3     1.648665877670    42.16311252   242.85979500
 O      2   1   3     6.021691573062    87.26422674   254.97016683
 H      7   2   1     1.648644006656   103.43046951   210.28054201

---------------------
BASIS SET INFORMATION
---------------------
There are 2 groups of distinct atoms

 Group   1 Type O   : 10s4p1d contracted to 3s2p1d pattern {631/31/1}
 Group   2 Type H   : 4s contracted to 2s pattern {31}

Atom   0O    basis set group =>   1
Atom   1H    basis set group =>   2
Atom   2H    basis set group =>   2
Atom   3O    basis set group =>   1
Atom   4H    basis set group =>   2
Atom   5H    basis set group =>   2
Atom   6O    basis set group =>   1
Atom   7H    basis set group =>   2
------------------------------------------------------------------------------
                             ORCA STARTUP CALCULATIONS
------------------------------------------------------------------------------
------------------------------------------------------------------------------
                   ___                                                        
                  /   \      - P O W E R E D   B Y -                         
                 /     \                                                     
                 |  |  |   _    _      __       _____    __    __             
                 |  |  |  | |  | |    /  \     |  _  \  |  |  /  |          
                  \  \/   | |  | |   /    \    | | | |  |  | /  /          
                 / \  \   | |__| |  /  /\  \   | |_| |  |  |/  /          
                |  |  |   |  __  | /  /__\  \  |    /   |      \           
                |  |  |   | |  | | |   __   |  |    \   |  |\   \          
                \     /   | |  | | |  |  |  |  | |\  \  |  | \   \       
                 \___/    |_|  |_| |__|  |__|  |_| \__\ |__|  \__/        
                                                                              
                      - O R C A' S   B I G   F R I E N D -                    
                                      &                                       
                       - I N T E G R A L  F E E D E R -                       
                                                                              
 v1 FN, 2020, v2 2021, v3 2022-2024                                           
------------------------------------------------------------------------------


----------------------
SHARK INTEGRAL PACKAGE
----------------------

Number of atoms                             ...      8
Number of basis functions                   ...     52
Number of shells                            ...     28
Maximum angular momentum                    ...      2
Integral batch strategy                     ... SHARK/LIBINT Hybrid
RI-J (if used) integral strategy            ... SPLIT-RIJ (Revised 2003 algorithm where possible)
Printlevel                                  ...      1
Contraction scheme used                     ... SEGMENTED contraction
Prescreening option                         ... SCHWARTZ
   Thresh                                   ... 2.500e-11
   Tcut                                     ... 2.500e-12
   Tpresel                                  ... 2.500e-12 
Coulomb Range Separation                    ... NOT USED
Exchange Range Separation                   ... NOT USED
Multipole approximations                    ... NOT USED
Finite Nucleus Model                        ... NOT USED
CABS basis                                  ... NOT available
Auxiliary Coulomb fitting basis             ... NOT available
Auxiliary J/K fitting basis                 ... NOT available
Auxiliary Correlation fitting basis         ... NOT available
Auxiliary 'external' fitting basis          ... NOT available

Checking pre-screening integrals            ... done (  0.0 sec) Dimension = 28
Check shell pair data                       ... done (  0.0 sec)
Shell pair information
Shell pair cut-off parameter TPreSel        ...   2.5e-12
Total number of shell pairs                 ...       406
Shell pairs after pre-screening             ...       353
Total number of primitive shell pairs       ...      2223
Primitive shell pairs kept                  ...      1303
          la=0 lb=0:    164 shell pairs
          la=1 lb=0:    100 shell pairs
          la=1 lb=1:     20 shell pairs
          la=2 lb=0:     48 shell pairs
          la=2 lb=1:     16 shell pairs
          la=2 lb=2:      5 shell pairs

Calculating one electron integrals          ... done (  0.0 sec)
Calculating Nuclear repulsion               ... done (  0.0 sec) ENN=     62.525518323480 Eh

Diagonalization of the overlap matrix:
Smallest eigenvalue                        ... 4.733e-02
Time for diagonalization                   ...    0.001 sec
Threshold for overlap eigenvalues          ... 1.000e-07
Number of eigenvalues below threshold      ... 0
Time for construction of square roots      ...    0.003 sec
Total time needed                          ...    0.006 sec

-------------------
DFT GRID GENERATION
-------------------

General Integration Accuracy     IntAcc      ... 4.388
Radial Grid Type                 RadialGrid  ... OptM3 with GC (2021)
Angular Grid (max. ang.)         AngularGrid ... 4 (Lebedev-302)
Angular grid pruning method      GridPruning ... 4 (adaptive)
Weight generation scheme         WeightScheme... mBecke (2022)
Basis function cutoff            BFCut       ... 1.0000e-11
Integration weight cutoff        WCut        ... 1.0000e-14
Partially contracted basis set               ... off
Rotationally invariant grid construction     ... off
Angular grids for H and He will be reduced by one unit

Total number of grid points                  ...    34901
Total number of batches                      ...      550
Average number of points per batch           ...       63
Average number of grid points per atom       ...     4363
Initializing property integral containers    ... done (  0.0 sec)

SHARK setup successfully completed in   0.3 seconds

Maximum memory used throughout the entire STARTUP-calculation: 12.4 MB
-------------------------------------------------------------------------------
                                 ORCA GUESS
                   Start orbitals & Density for SCF / CASSCF
-------------------------------------------------------------------------------

------------
SCF SETTINGS
------------
Hamiltonian:
 Ab initio Hamiltonian  Method          .... Hartree-Fock(GTOs)


General Settings:
 Integral files         IntName         .... frag
 Hartree-Fock type      HFTyp           .... RHF
 Total Charge           Charge          ....   -1
 Multiplicity           Mult            ....    1
 Number of Electrons    NEL             ....   30
 Basis Dimension        Dim             ....   52
 Nuclear Repulsion      ENuc            ....     62.5255183235 Eh

Convergence Acceleration:
 AO-DIIS                CNVDIIS         .... on
   Start iteration      DIISMaxIt       ....    12
   Startup error        DIISStart       ....  0.200000
   # of expansion vecs  DIISMaxEq       ....     5
   Bias factor          DIISBfac        ....   1.050
   Max. coefficient     DIISMaxC        ....  10.000
 MO-DIIS                CNVKDIIS        .... off
 Trust-Rad. Augm. Hess. CNVTRAH         .... auto
   Auto Start mean grad. ratio tolernc. ....  1.125000
   Auto Start start iteration           ....    50
   Auto Start num. interpolation iter.  ....    10
   Max. Number of Micro iterations      ....    24
   Max. Number of Macro iterations      .... Maxiter - #DIIS iter
   Number of Davidson start vectors     ....     2
   Converg. threshold    (grad. norm)   ....   1.000e-05
   Grad. Scal. Fac. for Micro threshold ....   0.100
   Minimum threshold for Micro iter.    ....   1.000e-02
   NR start threshold (gradient norm)   ....   1.000e-04
   Initial trust radius                 ....   0.400
   Minimum AH scaling param. (alpha)    ....   1.000
   Maximum AH scaling param. (alpha)    .... 1000.000
   Quad. conv. algorithm                .... NR
   White noise on init. David. guess    .... on
   Maximum white noise                  ....   0.010
   Pseudo random numbers                .... off
   Inactive MOs                         .... canonical
   Orbital update algorithm             .... Taylor
   Preconditioner                       .... Diag
   Full preconditioner red. dimension   ....   250
 SOSCF                  CNVSOSCF        .... on
   Start iteration      SOSCFMaxIt      ....   150
   Startup grad/error   SOSCFStart      ....  0.003300
   Hessian update       SOSCFHessUp     .... L-BFGS
 Level Shifting         CNVShift        .... on
   Level shift para.    LevelShift      ....    0.2500
   Turn off err/grad.   ShiftErr        ....    0.0010
 Zerner damping         CNVZerner       .... off
 Static damping         CNVDamp         .... on
   Fraction old density DampFac         ....    0.7000
   Max. Damping (<1)    DampMax         ....    0.9800
   Min. Damping (>=0)   DampMin         ....    0.0000
   Turn off err/grad.   DampErr         ....    0.1000

SCF Procedure:
 Maximum # iterations   MaxIter         ....   125
 SCF integral mode      SCFMode         .... Direct
   Integral package                     .... SHARK and LIBINT hybrid scheme
 Reset frequency        DirectResetFreq ....    20
 Integral Threshold     Thresh          ....  2.500e-11 Eh
 Primitive CutOff       TCut            ....  2.500e-12 Eh

Convergence Tolerance:
 Convergence Check Mode ConvCheckMode   .... Total+1el-Energy
 Convergence forced     ConvForced      .... 0
 Energy Change          TolE            ....  1.000e-08 Eh
 1-El. energy change                    ....  1.000e-05 Eh
 Orbital Gradient       TolG            ....  1.000e-05
 Orbital Rotation angle TolX            ....  1.000e-05
 DIIS Error             TolErr          ....  5.000e-07

------------------------------
INITIAL GUESS: MODEL POTENTIAL
------------------------------
Loading Hartree-Fock densities                     ... done
Calculating cut-offs                               ... done
Initializing the effective Hamiltonian             ... done
Setting up the integral package (SHARK)            ... done
Starting the Coulomb interaction                   ... done (   0.0 sec)
Making the grid                                    ... done (   0.1 sec)
Mapping shells                                     ... done
Starting the XC term evaluation                    ... done (   0.0 sec)
Transforming the Hamiltonian                       ... done (   0.0 sec)
Diagonalizing the Hamiltonian                      ... done (   0.0 sec)
Back transforming the eigenvectors                 ... done (   0.0 sec)
Now organizing SCF variables                       ... done
                      ------------------
                      INITIAL GUESS DONE (   0.1 sec)
                      ------------------
             **** ENERGY FILE WAS UPDATED (frag.en.tmp) ****
Finished Guess after   0.2 sec
Maximum memory used throughout the entire GUESS-calculation: 5.4 MB

-------------------------------------------------------------------------------------------
                                      ORCA LEAN-SCF
                              memory conserving SCF solver
-------------------------------------------------------------------------------------------

----------------------------------------D-I-I-S--------------------------------------------
Iteration    Energy (Eh)           Delta-E    RMSDP     MaxDP     DIISErr   Damp  Time(sec)
-------------------------------------------------------------------------------------------
               ***  Starting incremental Fock matrix formation  ***
    1    -226.8745348172842853     0.00e+00  9.59e-03  1.09e-01  4.80e-01  0.700   0.1
    2    -227.0429812593617669    -1.68e-01  6.63e-03  7.43e-02  2.88e-01  0.700   0.1
                               ***Turning on AO-DIIS***
    3    -227.1330218078108771    -9.00e-02  2.61e-03  3.02e-02  1.58e-01  0.700   0.1
    4    -227.1871886725192837    -5.42e-02  1.58e-03  1.94e-02  1.08e-01  0.700   0.1
    5    -227.2229612566050889    -3.58e-02  1.10e-03  1.41e-02  7.74e-02  0.700   0.1
    6    -227.2474078159470139    -2.44e-02  2.70e-03  3.52e-02  5.61e-02  0.000   0.1
    7    -227.3029187488130844    -5.55e-02  2.35e-04  2.97e-03  3.88e-03  0.000   0.1
                              *** Initializing SOSCF ***
---------------------------------------S-O-S-C-F--------------------------------------
Iteration    Energy (Eh)           Delta-E    RMSDP     MaxDP     MaxGrad    Time(sec)
--------------------------------------------------------------------------------------
    8    -227.3029564812008800    -3.77e-05  1.77e-04  2.28e-03  1.89e-03     0.1
               *** Restarting incremental Fock matrix formation ***
    9    -227.3029674302611340    -1.09e-05  7.86e-05  1.09e-03  4.43e-04     0.1
   10    -227.3029687778709160    -1.35e-06  5.46e-05  7.08e-04  1.64e-04     0.1
   11    -227.3029690812940373    -3.03e-07  5.50e-06  5.98e-05  4.80e-05     0.1
   12    -227.3029690942734931    -1.30e-08  2.10e-06  3.13e-05  1.14e-05     0.1
   13    -227.3029690956649063    -1.39e-09  6.05e-07  8.90e-06  2.21e-06     0.1
                 **** Energy Check signals convergence ****

               *****************************************************
               *                     SUCCESS                       *
               *           SCF CONVERGED AFTER  13 CYCLES          *
               *****************************************************

             **** ENERGY FILE WAS UPDATED (frag.en.tmp) ****

----------------
TOTAL SCF ENERGY
----------------

Total Energy       :       -227.30296909566491 Eh           -6185.22824 eV

Components:
Nuclear Repulsion  :         62.52551832347964 Eh            1701.40585 eV
Electronic Energy  :       -289.82848741914455 Eh           -7886.63409 eV
One Electron Energy:       -444.89133800417954 Eh          -12106.10877 eV
Two Electron Energy:        155.06285058503499 Eh            4219.47468 eV

Virial components:
Potential Energy   :       -455.74395049578237 Eh          -12401.42337 eV
Kinetic Energy     :        228.44098140011747 Eh            6216.19513 eV
Virial Ratio       :          1.99501835311038

---------------
SCF CONVERGENCE
---------------

  Last Energy change         ...    1.3914e-09  Tolerance :   1.0000e-08
  Last MAX-Density change    ...    8.9001e-06  Tolerance :   1.0000e-07
  Last RMS-Density change    ...    6.0505e-07  Tolerance :   5.0000e-09
  Last DIIS Error            ...    1.8941e-03  Tolerance :   5.0000e-07
  Last Orbital Gradient      ...    2.2101e-06  Tolerance :   1.0000e-05
  Last Orbital Rotation      ...    4.4813e-06  Tolerance :   1.0000e-05


----------------
ORBITAL ENERGIES
----------------

  NO   OCC          E(Eh)            E(eV) 
   0   2.0000     -20.424215      -555.7712 
   1   2.0000     -20.384339      -554.6861 
   2   2.0000     -20.066952      -546.0495 
   3   2.0000      -1.277496       -34.7624 
   4   2.0000      -1.237898       -33.6849 
   5   2.0000      -0.848430       -23.0870 
   6   2.0000      -0.640678       -17.4337 
   7   2.0000      -0.601616       -16.3708 
   8   2.0000      -0.477020       -12.9804 
   9   2.0000      -0.436019       -11.8647 
  10   2.0000      -0.391088       -10.6420 
  11   2.0000      -0.348223        -9.4756 
  12   2.0000      -0.186723        -5.0810 
  13   2.0000      -0.032044        -0.8720 
  14   2.0000      -0.030076        -0.8184 
  15   0.0000       0.332080         9.0364 
  16   0.0000       0.393907        10.7187 
  17   0.0000       0.443632        12.0718 
  18   0.0000       0.473827        12.8935 
  19   0.0000       0.576649        15.6914 
  20   0.0000       1.165898        31.7257 
  21   0.0000       1.201981        32.7076 
  22   0.0000       1.276440        34.7337 
  23   0.0000       1.289772        35.0965 
  24   0.0000       1.311294        35.6821 
  25   0.0000       1.336410        36.3656 
*Only the first 10 virtual orbitals were printed.

                    ********************************
                    * MULLIKEN POPULATION ANALYSIS *
                    ********************************

-----------------------
MULLIKEN ATOMIC CHARGES
-----------------------
   0 O :   -0.867515
   1 H :    0.438500
   2 H :    0.420543
   3 O :   -0.895948
   4 H :    0.437593
   5 H :    0.455095
   6 O :   -1.271999
   7 H :    0.283731
Sum of atomic charges:   -1.0000000

--------------------------------
MULLIKEN REDUCED ORBITAL CHARGES
--------------------------------
  0 O s       :     3.843025  s :     3.843025
      pz      :     1.845731  p :     4.990961
      px      :     1.792217
      py      :     1.353013
      dz2     :     0.003042  d :     0.033529
      dxz     :     0.007111
      dyz     :     0.007402
      dx2y2   :     0.000931
      dxy     :     0.015044

  1 H s       :     0.561500  s :     0.561500

  2 H s       :     0.579457  s :     0.579457

  3 O s       :     3.844357  s :     3.844357
      pz      :     1.715648  p :     5.018633
      px      :     1.716676
      py      :     1.586309
      dz2     :     0.004223  d :     0.032958
      dxz     :     0.009490
      dyz     :     0.002867
      dx2y2   :     0.001656
      dxy     :     0.014723

  4 H s       :     0.562407  s :     0.562407

  5 H s       :     0.544905  s :     0.544905

  6 O s       :     3.921777  s :     3.921777
      pz      :     1.994703  p :     5.331753
      px      :     1.990278
      py      :     1.346772
      dz2     :     0.003675  d :     0.018468
      dxz     :     0.000005
      dyz     :     0.001880
      dx2y2   :     0.011039
      dxy     :     0.001868

  7 H s       :     0.716269  s :     0.716269



                     *******************************
                     * LOEWDIN POPULATION ANALYSIS *
                     *******************************

----------------------
LOEWDIN ATOMIC CHARGES
----------------------
   0 O :   -0.617726
   1 H :    0.310350
   2 H :    0.299513
   3 O :   -0.629812
   4 H :    0.309484
   5 H :    0.317814
   6 O :   -1.182553
   7 H :    0.192929

-------------------------------
LOEWDIN REDUCED ORBITAL CHARGES
-------------------------------
  0 O s       :     3.556666  s :     3.556666
      pz      :     1.855355  p :     5.018342
      px      :     1.802981
      py      :     1.360005
      dz2     :     0.003602  d :     0.042718
      dxz     :     0.007614
      dyz     :     0.010440
      dx2y2   :     0.001800
      dxy     :     0.019261

  1 H s       :     0.689650  s :     0.689650

  2 H s       :     0.700487  s :     0.700487

  3 O s       :     3.553621  s :     3.553621
      pz      :     1.720055  p :     5.034649
      px      :     1.728239
      py      :     1.586354
      dz2     :     0.005211  d :     0.041542
      dxz     :     0.011531
      dyz     :     0.004414
      dx2y2   :     0.001731
      dxy     :     0.018656

  4 H s       :     0.690516  s :     0.690516

  5 H s       :     0.682186  s :     0.682186

  6 O s       :     3.746260  s :     3.746260
      pz      :     1.995042  p :     5.410780
      px      :     1.991189
      py      :     1.424549
      dz2     :     0.005428  d :     0.025512
      dxz     :     0.000007
      dyz     :     0.001883
      dx2y2   :     0.016318
      dxy     :     0.001878

  7 H s       :     0.807071  s :     0.807071



                      *****************************
                      * MAYER POPULATION ANALYSIS *
                      *****************************

  NA   - Mulliken gross atomic population
  ZA   - Total nuclear charge
  QA   - Mulliken gross atomic charge
  VA   - Mayer's total valence
  BVA  - Mayer's bonded valence
  FA   - Mayer's free valence

  ATOM       NA         ZA         QA         VA         BVA        FA
  0 O      8.8675     8.0000    -0.8675     1.5704     1.5704     0.0000
  1 H      0.5615     1.0000     0.4385     0.7851     0.7851     0.0000
  2 H      0.5795     1.0000     0.4205     0.7846     0.7846     0.0000
  3 O      8.8959     8.0000    -0.8959     1.5476     1.5476     0.0000
  4 H      0.5624     1.0000     0.4376     0.7722     0.7722     0.0000
  5 H      0.5449     1.0000     0.4551     0.7634     0.7634     0.0000
  6 O      9.2720     8.0000    -1.2720     0.8839     0.8839    -0.0000
  7 H      0.7163     1.0000     0.2837     0.8598     0.8598     0.0000

  Mayer bond orders larger than 0.100000
B(  0-O ,  1-H ) :   0.7722 B(  0-O ,  2-H ) :   0.7917 B(  3-O ,  4-H ) :   0.7819 
B(  3-O ,  5-H ) :   0.7654 B(  6-O ,  7-H ) :   0.8594 

-------
TIMINGS
-------

Total SCF time: 0 days 0 hours 0 min 1 sec 

Total time                  ....       1.144 sec
Sum of individual times     ....       1.038 sec  ( 90.7%)

SCF preparation             ....       0.069 sec  (  6.0%)
Fock matrix formation       ....       0.610 sec  ( 53.3%)
  Startup                   ....       0.036 sec  (  5.8% of F)
  Coulomb+Exchange Fock     ....       0.488 sec  ( 80.0% of F)
Diagonalization             ....       0.000 sec  (  0.0%)
Density matrix formation    ....       0.118 sec  ( 10.3%)
Total Energy calculation    ....       0.023 sec  (  2.0%)
Population analysis         ....       0.025 sec  (  2.2%)
Orbital Transformation      ....       0.018 sec  (  1.5%)
Orbital Orthonormalization  ....       0.000 sec  (  0.0%)
DIIS solution               ....       0.122 sec  ( 10.6%)
SOSCF solution              ....       0.055 sec  (  4.8%)
Finished LeanSCF after   1.2 sec

Maximum memory used throughout the entire LEANSCF-calculation: 7.6 MB

-------------------------   --------------------
FINAL SINGLE POINT ENERGY      -227.302969095665
-------------------------   --------------------

------------------------------------------------------------------------------
                         ORCA SCF GRADIENT CALCULATION
------------------------------------------------------------------------------

Nuc. rep. gradient        (SHARK) ... done (  0.0 sec)
HCore & Overlap gradient  (SHARK) ... done (  0.0 sec)
Two-electron gradient     (SHARK) ... done (  0.2 sec)

------------------
CARTESIAN GRADIENT
------------------

   1   O   :    0.080899579    0.024382807    0.095660301
   2   H   :   -0.034988442   -0.102084892   -0.031710454
   3   H   :   -0.043672531    0.081777515   -0.060470025
   4   O   :    0.113532251    0.028044156    0.050941453
   5   H   :   -0.047352082    0.060632377   -0.081103284
   6   H   :   -0.065251327   -0.090017158    0.029430885
   7   O   :   -0.006358011    0.118059511   -0.004065988
   8   H   :    0.003190563   -0.120794317    0.001317113

Difference to translation invariance:
           :   -0.0000000000    0.0000000000   -0.0000000000

Difference to rotation invariance:
           :    0.0000007799    0.0000008800   -0.0000016094

Norm of the Cartesian gradient     ...    0.3343429597
RMS gradient                       ...    0.0682474709
MAX gradient                       ...    0.1207943167

-------
TIMINGS
-------

Total SCF gradient time     ....        0.195 sec

Densities                   ....       0.000 sec  (  0.0%)
One electron gradient       ....       0.017 sec  (  8.5%)
Two electron gradient       ....       0.178 sec  ( 91.4%)

Maximum memory used throughout the entire SCFGRAD-calculation: 13.4 MB

------------------------------------------------------------------------------
                              ORCA PROPERTY CALCULATIONS
------------------------------------------------------------------------------

GBWName                                 ... frag.gbw
Number of atoms                         ...      8
Number of basis functions               ...     52
Max core memory                         ...   1024 MB

Electric properties:
Dipole moment                           ... YES
Quadrupole moment                       ...  NO
Static polarizability (Dipole/Dipole)   ...  NO
Static polarizability (Dipole/Quad.)    ...  NO
Static polarizability (Quad./Quad.)     ...  NO
Static polarizability (Velocity)        ...  NO

Atomic electric properties:
Dipole moment                           ...  NO
Quadrupole moment                       ...  NO
Static polarizability                   ...  NO

Choice of electric origin               ... Center of mass
Position of electric origin             ...    43.150715    87.903677    78.659370

General magnetic properties:
Magnetizability                         ...  NO

EPR properties:
g-Tensor (aka g-matrix)                 ...  NO
Zero-Field splitting spin-orbit         ...  NO
Zero-field splitting spin-spin          ...  NO
Hyperfine couplings                     ...  NO (   0 nuclei)
Quadrupole couplings                    ...  NO (   0 nuclei)
Contact density                         ...  NO (   0 nuclei)

NMR properties:
Chemical shifts                         ...  NO (   0 nuclei)
Spin-rotation constants                 ...  NO (   0 nuclei)
Spin-spin couplings                     ...  NO (   0 nuclei,    0 pairs)

Choice of magnetic origin               ... GIAO
Position of magnetic origin             ...     0.000000     0.000000     0.000000

Properties with geometric perturbations:
SCF Hessian                             ...  NO
IR spectrum                             ...  NO
VCD spectrum                            ...  NO
X-ray spectroscopy properties:
SCF XES/XAS/RIXS spectra                ...  NO


-------------
DIPOLE MOMENT
-------------

Method             : SCF
Type of density    : Electron Density
Multiplicity       :   1
Irrep              :   0
Energy             :  -227.3029690956649063 Eh
Relativity type    : 
Basis              : AO
                                X                 Y                 Z
Electronic contribution:      0.699166129      -2.121022836      -1.985931979
Nuclear contribution   :      2.203054640      -0.576491084      -0.722267807
                        -----------------------------------------
Total Dipole Moment    :      2.902220769      -2.697513920      -2.708199786
                        -----------------------------------------
Magnitude (a.u.)       :      4.799355459
Magnitude (Debye)      :     12.198992108



--------------------
Rotational spectrum 
--------------------
 
Rotational constants in cm-1:             0.312871             0.062405             0.052639 
Rotational constants in MHz :          9379.634283          1870.853325          1578.086226 

Dipole components along the rotational axes: 
x,y,z [a.u.] :     3.878139     2.795622     0.422313 
x,y,z [Debye]:     9.857447     7.105905     1.073434 

 

Dipole moment calculation done in   0.0 sec 

Maximum memory used throughout the entire PROP-calculation: 2.1 MB

--------------------------------
SUGGESTED CITATIONS FOR THIS RUN
--------------------------------

Below you find a list of papers that are relevant to this ORCA run
We neither can nor want to force you to cite these papers, but we appreciate if you do
You receive ORCA, which is the product of decades of hard work by many enthusiastic individuals, for free
The only thing we kindly ask in return is that you cite our papers,
We deeply appreciate it, if you show your appreciation for ORCA by not just citing the generic ORCA reference.

Please note that relegating all ORCA citations to the supporting information does *not* help us.
SI sections are not indexed - citations you put there will not count into any citation statistics
But we need these citations in order to attract the funding resources that allow us to do what we are doing

Therefore, if you are a happy ORCA user, please consider citing a few of the papers listed below in the main body of your paper

In addition to the list printed below, the program has created the file frag.bibtex that contains the list in bibtex format
You can import this file easily into all common literature databanks and citation aid programs


List of essential papers. We consider these as the minimum necessary citations

  1. Neese,F.
     Software update: the ORCA program system, version 5.0
     WIRES Comput. Molec. Sci., 2022 12(1)e1606
     doi.org/10.1002/wcms.1606

List of papers to cite with high priority. The work reported in these papers was absolutely
necessary for this run to complete.
Our perspective: the developers of density functionals and basis sets usually get cited in chemistry papers
Good! But without the algorithms to do something with them, the functionals or basis sets would not do anything.
Hence, in our opinion, the algorithm design and method developments papers are equally worthy of getting cited

  1. Neese,F.
     The SHARK Integral Generation and Digestion System
     J. Comp. Chem., 2022  1-16
     doi.org/10.1002/jcc.26942

List of suggested additional citations. These are papers that are important in the 'surrounding' of 
of this run, or papers that preceded the highly important papers. If you like your results we are grateful for a citation.

  1. Neese,F.
     The ORCA program system
     WIRES Comput. Molec. Sci., 2012 2(1)73-78
     doi.org/10.1002/wcms.81
  2. Neese,F.
     Software update: the ORCA program system, version 4.0
     WIRES Comput. Molec. Sci., 2018 8(1)1-6
     doi.org/10.1002/wcms.1327
  3. Neese,F.; Wennmohs,F.; Becker,U.; Riplinger,C.
     The ORCA quantum chemistry program package
     J. Chem. Phys., 2020 152 Art. No. L224108
     doi.org/10.1063/5.0004608

List of optional additional citations

  1. Neese,F.
     Approximate second-order SCF convergence for spin unrestricted wavefunctions
     Chem. Phys. Lett., 2000 325(1-3)93-98
     doi.org/10.1016/s0009-2614(00)00662-x

Timings for individual modules:

Sum of individual times          ...        2.067 sec (=   0.034 min)
Startup calculation              ...        0.332 sec (=   0.006 min)  16.1 %
SCF iterations                   ...        1.401 sec (=   0.023 min)  67.8 %
Property calculations            ...        0.068 sec (=   0.001 min)   3.3 %
SCF Gradient evaluation          ...        0.265 sec (=   0.004 min)  12.8 %
                             ****ORCA TERMINATED NORMALLY****
TOTAL RUN TIME: 0 days 0 hours 0 minutes 2 seconds 334 msec
