
                                 *****************
                                 * O   R   C   A *
                                 *****************

                                            #,                                       
                                            ###                                      
                                            ####                                     
                                            #####                                    
                                            ######                                   
                                           ########,                                 
                                     ,,################,,,,,                         
                               ,,#################################,,                 
                          ,,##########################################,,             
                       ,#########################################, ''#####,          
                    ,#############################################,,   '####,        
                  ,##################################################,,,,####,       
                ,###########''''           ''''###############################       
              ,#####''   ,,,,##########,,,,          '''####'''          '####       
            ,##' ,,,,###########################,,,                        '##       
           ' ,,###''''                  '''############,,,                           
         ,,##''                                '''############,,,,        ,,,,,,###''
      ,#''                                            '''#######################'''  
     '                                                          ''''####''''         
             ,#######,   #######,   ,#######,      ##                                
            ,#'     '#,  ##    ##  ,#'     '#,    #''#        ,####,   ,####,        
            ##       ##  ##   ,#'  ##            #'  '#       #'       #'  '#        
            ##       ##  #######   ##           ,######,      #####,   #    #        
            '#,     ,#'  ##    ##  '#,     ,#' ,#      #,     #,   #   #,  ,#        
             '#######'   ##     ##  '#######'  #'      '#     '####' # '####'        



                #########################################################
                #                        -***-                          #
                #          Department of theory and spectroscopy        #
                #                                                       #
                #                      Frank Neese                      #
                #                                                       #
                #     Directorship, Architecture, Infrastructure        #
                #                    SHARK, DRIVERS                     #
                #        Core code/Algorithms in most modules           #
                #                                                       #
                #        Max Planck Institute fuer Kohlenforschung      #
                #                Kaiser Wilhelm Platz 1                 #
                #                 D-45470 Muelheim/Ruhr                 #
                #                      Germany                          #
                #                                                       #
                #                  All rights reserved                  #
                #                        -***-                          #
                #########################################################


                         Program Version 6.0.1  -  RELEASE   -


 With contributions from (in alphabetic order):
[Max-Planck-Institut fuer Kohlenforschung]                               
  Daniel Aravena         : Magnetic Suceptibility                        
  Michael Atanasov       : Ab Initio Ligand Field Theory (pilot matlab implementation)
  Alexander A. Auer      : GIAO ZORA, VPT2 properties, NMR spectrum      
  Ute Becker             : All parallelization in ORCA, NUMFREQ, NUMCALC 
  Giovanni Bistoni       : ED, misc. LED, open-shell LED, HFLD           
  Martin Brehm           : Molecular dynamics                            
  Dmytro Bykov           : pre 5.0 version of the SCF Hessian            
  Marcos Casanova-Páez   : Triplet and SCS-CIS(D). UHF-(DLPNO)-IP/EA/STEOM-CCSD. UHF-CVS-IP/STEOM-CCSD   
  Vijay G. Chilkuri      : MRCI spin determinant printing, contributions to CSF-ICE 
  Pauline Colinet        : FMM embedding                                 
  Dipayan Datta          : RHF DLPNO-CCSD density                        
  Achintya Kumar Dutta   : EOM-CC, STEOM-CC                              
  Nicolas Foglia         : Exact transition moments, OPA infrastructure, MCD improvements    
  Dmitry Ganyushin       : Spin-Orbit,Spin-Spin,Magnetic field MRCI      
  Miquel Garcia-Rates    : C-PCM and meta-GGA Hessian, CCSD/C-PCM, Gaussian charge scheme 
  Tiago L. C. Gouveia    : GS-ROHF, GS-ROCIS                             
  Yang Guo               : DLPNO-NEVPT2, F12-NEVPT2, CIM, IAO-localization        
  Andreas Hansen         : Spin unrestricted coupled pair/coupled cluster methods 
  Ingolf Harden          : AUTO-CI MPn and infrastructure                
  Benjamin Helmich-Paris : MC-RPA, TRAH-(SCF,CASSCF), AVAS, COSX integrals, SCF dyn. polar. 
  Lee Huntington         : MR-EOM, pCC                                   
  Robert Izsak           : Overlap fitted RIJCOSX, COSX-SCS-MP3, EOM     
  Riya Kayal             : Wick's Theorem for AUTO-CI, AUTO-CI UHF-CCSDT 
  Emily Kempfer          : AUTO-CI, RHF CISDT and CCSDT                  
  Christian Kollmar      : KDIIS, OOCD, Brueckner-CCSD(T), CCSD density, CASPT2, CASPT2-K, improved NEVPT2 
  Axel Koslowski         : Symmetry handling                             
  Simone Kossmann        : meta-GGA functionals, TD-DFT gradient, OOMP2, (MP2 Hessian; deprecated post 5.0) 
  Lucas Lang             : DCDCAS                                        
  Marvin Lechner         : AUTO-CI (C++ implementation), FIC-MRCC        
  Spencer Leger          : CASSCF response                               
  Dagmar Lenk            : GEPOL surface, SMD, ORCA-2-JSON               
  Dimitrios Liakos       : Extrapolation schemes; Compound Job, initial MDCI parallelization 
  Dimitrios Manganas     : Further ROCIS development; embedding schemes. LFT, Crystal Embedding 
  Dimitrios Pantazis     : SARC Basis sets                               
  Anastasios Papadopoulos: AUTO-CI, single reference methods and gradients 
  Taras Petrenko         : pre 6.0 DFT Hessian and TD-DFT gradient, (ASA, deprecated), ECA, 1-Electron XAS/XES, NRVS 
  Peter Pinski           : DLPNO-MP2, DLPNO-MP2 Gradient                 
  Christoph Reimann      : Effective Core Potentials                     
  Marius Retegan         : Local ZFS, SOC                                
  Christoph Riplinger    : Optimizer, TS searches, QM/MM, DLPNO-CCSD(T), (RO)-DLPNO pert. Triples 
  Michael Roemelt        : Original ROCIS implementation                 
  Masaaki Saitow         : Open-shell DLPNO-CCSD energy and density      
  Barbara Sandhoefer     : DKH picture change effects                    
  Kantharuban Sivalingam : CASSCF convergence/infrastructure, NEVPT2 and variants, FIC-MRCI 
  Bernardo de Souza      : ESD, SOC TD-DFT                               
  Georgi L. Stoychev     : AutoAux, RI-MP2 NMR, DLPNO-MP2 response, X2C  
  Van Anh Tran           : RI-MP2 g-tensors                              
  Willem Van den Heuvel  : Paramagnetic NMR                              
  Zikuan Wang            : NOTCH, Electric field optimization            
  Frank Wennmohs         : Technical directorship and infrastructure     
  Hang Xu                : AUTO-CI-Response properties                   
                                                                         
[FACCTs GmbH]                                                            
  Markus Bursch, Miquel Garcia-Rates, Christoph Riplinger, Bernardo de Souza, Georgi L. Stoychev 
                                                                 
  APM, Basis sets (HGBS, AHGBS, def-TZVP (Ac-Lr), def2-XVPD (La-Lu)), CI-OPT, improved COSX, DLPNO-Multilevel,           
  DOCKER, DRACO, updates on ESD, GOAT, IRC, LR-CPCM, MBIS, meta-GGA TD-DFT gradient, ML-optimized integration grids, 
  MM, NACMEs, nearIR, NEB, NEB-TS, NL-DFT gradient (VV10), 2- and 3-layer-ONIOM, interface openCOSMO-RS, QMMM,   
  Crystal-QMMM, SF, symmetry and pop. for TD-DFT, r2SCAN hybrids, SOLVATOR                                   
                                                                         
[Other institutions]                                                     
  V. Asgeirsson          : NEB                                           
  Christoph Bannwarth    : sTDA-DFT, sTD-DFT, PBEh-3c, B97-3c, D3        
  Sebastian Ehlert       : rSCAN, r2SCAN, r2SCAN-3c, D4, dhf basis sets  
  Marvin Friede          : D4 for Fr, Ra, Ac-Lr                          
  Lars Goerigk           : TD-DFT with DH, B97 family of functionals     
  Stefan Grimme          : VdW corrections, initial TS optimization, DFT functionals, gCP, sTDA/sTD-DF 
  Waldemar Hujo          : DFT-NL                                        
  H. Jonsson             : NEB                                           
  Holger Kruse           : gCP                                           
  Marcel Mueller         : wB97X-3c, vDZP basis set                      
  Hagen Neugebauer       : wr2SCAN                                       
  Tobias Risthaus        : range-separated hybrid DFT                    
  Lukas Wittmann         : regularized MP2, r2SCAN double-hybrids, wr2SCAN        
                                                                         
We gratefully acknowledge several colleagues who have allowed us to      
interface, adapt or use parts of their codes:                            
  Ed Valeev, F. Pavosevic, A. Kumar             : LibInt (2-el integral package), F12 methods 
  Garnet Chan, S. Sharma, J. Yang, R. Olivares  : DMRG                   
  Ulf Ekstrom                                   : XCFun DFT Library      
  Mihaly Kallay                                 : mrcc  (arbitrary order and MRCC methods)
  Frank Weinhold                                : gennbo (NPA and NBO analysis)           
  Simon Mueller                                 : openCOSMO-RS                            
  Christopher J. Cramer and Donald G. Truhlar   : smd solvation model                     
  S Lehtola, MJT Oliveira, MAL Marques          : LibXC Library                           
  Liviu Ungur et al                             : ANISO software                          


 Your calculation uses the libint2 library for the computation of 2-el integrals
 For citations please refer to: http://libint.valeyev.net

 Your ORCA version has been built with support for libXC version: 6.2.2
 For citations please refer to: https://libxc.gitlab.io

 This ORCA versions uses:
   CBLAS   interface :  Fast vector & matrix operations
   LAPACKE interface :  Fast linear algebra routines
   SCALAPACK package :  Parallel linear algebra routines
   Shared memory     :  Shared parallel matrices
   BLAS/LAPACK       :  OpenBLAS 0.3.27  USE64BITINT DYNAMIC_ARCH NO_AFFINITY SkylakeX SINGLE_THREADED
        Core in use  :  SkylakeX
   Copyright (c) 2011-2014, The OpenBLAS Project


================================================================================

----- Orbital basis set information -----
Your calculation utilizes the basis: 6-31G*
   H-He, Li-Ne : W. J. Hehre, R. Ditchfield and J.A. Pople, J. Chem. Phys. 56, 2257 (1972).
                 Note: He and Ne are unpublished basis sets taken from the Gaussian program.
                 Note: Li and B from J. D. Dill and J. A. Pople, J. Chem. Phys. 62, 2921 (1975).
   Na - Ar     : M. M. Francl, W. J. Pietro, W. J. Hehre, J. S. Binkley, M. S. Gordon, 
                 D. J. DeFrees and J. A. Pople, J. Chem. Phys. 77, 3654 (1982).
   K - Zn      : V. A. Rassolov, J. A. Pople, M. A. Ratner, and T. L. Windus, J. Chem. Phys. 109, 1223 (1998).

================================================================================
                                        WARNINGS
                       Please study these warnings very carefully!
================================================================================


================================================================================
                                       INPUT FILE
================================================================================
NAME = frag.inp
|  1> !HF 6-31G* EnGrad
|  2> %pal nprocs 1 end
|  3> *xyz 0 1
|  4> O 21.31548000 47.19077000 40.87238000
|  5> H 20.96265000 46.41737000 40.67613000
|  6> H 22.11097000 46.98487000 41.16553000
|  7> O 24.10596000 46.93173000 41.50917000
|  8> H 24.52212000 47.66562000 41.73132000
|  9> H 24.52341000 46.31399000 41.96223000
| 10> O 22.25294000 44.28778000 39.87163000
| 11> H 22.68414000 43.83080000 40.47691000
| 12> H 22.81575000 44.91633000 39.64956000
| 13> *
| 14> 
| 15>                          ****END OF INPUT****
================================================================================

                     *******************************
                     * Energy+Gradient Calculation *
                     *******************************

---------------------------------
CARTESIAN COORDINATES (ANGSTROEM)
---------------------------------
  O     21.315480   47.190770   40.872380
  H     20.962650   46.417370   40.676130
  H     22.110970   46.984870   41.165530
  O     24.105960   46.931730   41.509170
  H     24.522120   47.665620   41.731320
  H     24.523410   46.313990   41.962230
  O     22.252940   44.287780   39.871630
  H     22.684140   43.830800   40.476910
  H     22.815750   44.916330   39.649560

----------------------------
CARTESIAN COORDINATES (A.U.)
----------------------------
  NO LB      ZA    FRAG     MASS         X           Y           Z
   0 O     8.0000    0    15.999   40.280420   89.177631   77.237605
   1 H     1.0000    0     1.008   39.613668   87.716117   76.866746
   2 H     1.0000    0     1.008   41.783678   88.788537   77.791578
   3 O     8.0000    0    15.999   45.553663   88.688117   78.440963
   4 H     1.0000    0     1.008   46.340091   90.074968   78.860766
   5 H     1.0000    0     1.008   46.342529   87.520757   79.297123
   6 O     8.0000    0    15.999   42.051962   83.691775   75.346461
   7 H     1.0000    0     1.008   42.866812   82.828208   76.490275
   8 H     1.0000    0     1.008   43.115519   84.879563   74.926810

--------------------------------
INTERNAL COORDINATES (ANGSTROEM)
--------------------------------
 O      0   0   0     0.000000000000     0.00000000     0.00000000
 H      1   0   0     0.872439471482     0.00000000     0.00000000
 H      1   2   0     0.872431127712   103.59872274     0.00000000
 O      3   1   2     2.025067260439   164.04508453   134.49752923
 H      4   3   1     0.872430111929   119.41048032    51.16069882
 H      4   3   1     0.872427976225   125.31625843   188.06283548
 O      2   1   3     2.616719721751   126.24180712   329.77871731
 H      7   2   1     0.872426523439   117.17456234    76.98324549
 H      7   2   1     0.872436406565    79.04835924   337.20315741

---------------------------
INTERNAL COORDINATES (A.U.)
---------------------------
 O      0   0   0     0.000000000000     0.00000000     0.00000000
 H      1   0   0     1.648671669524     0.00000000     0.00000000
 H      1   2   0     1.648655902083   103.59872274     0.00000000
 O      3   1   2     3.826822524999   164.04508453   134.49752923
 H      4   3   1     1.648653982532   119.41048032    51.16069882
 H      4   3   1     1.648649946636   125.31625843   188.06283548
 O      2   1   3     4.944883643340   126.24180712   329.77871731
 H      7   2   1     1.648647201269   117.17456234    76.98324549
 H      7   2   1     1.648665877670    79.04835924   337.20315741

---------------------
BASIS SET INFORMATION
---------------------
There are 2 groups of distinct atoms

 Group   1 Type O   : 10s4p1d contracted to 3s2p1d pattern {631/31/1}
 Group   2 Type H   : 4s contracted to 2s pattern {31}

Atom   0O    basis set group =>   1
Atom   1H    basis set group =>   2
Atom   2H    basis set group =>   2
Atom   3O    basis set group =>   1
Atom   4H    basis set group =>   2
Atom   5H    basis set group =>   2
Atom   6O    basis set group =>   1
Atom   7H    basis set group =>   2
Atom   8H    basis set group =>   2
------------------------------------------------------------------------------
                             ORCA STARTUP CALCULATIONS
------------------------------------------------------------------------------
------------------------------------------------------------------------------
                   ___                                                        
                  /   \      - P O W E R E D   B Y -                         
                 /     \                                                     
                 |  |  |   _    _      __       _____    __    __             
                 |  |  |  | |  | |    /  \     |  _  \  |  |  /  |          
                  \  \/   | |  | |   /    \    | | | |  |  | /  /          
                 / \  \   | |__| |  /  /\  \   | |_| |  |  |/  /          
                |  |  |   |  __  | /  /__\  \  |    /   |      \           
                |  |  |   | |  | | |   __   |  |    \   |  |\   \          
                \     /   | |  | | |  |  |  |  | |\  \  |  | \   \       
                 \___/    |_|  |_| |__|  |__|  |_| \__\ |__|  \__/        
                                                                              
                      - O R C A' S   B I G   F R I E N D -                    
                                      &                                       
                       - I N T E G R A L  F E E D E R -                       
                                                                              
 v1 FN, 2020, v2 2021, v3 2022-2024                                           
------------------------------------------------------------------------------


----------------------
SHARK INTEGRAL PACKAGE
----------------------

Number of atoms                             ...      9
Number of basis functions                   ...     54
Number of shells                            ...     30
Maximum angular momentum                    ...      2
Integral batch strategy                     ... SHARK/LIBINT Hybrid
RI-J (if used) integral strategy            ... SPLIT-RIJ (Revised 2003 algorithm where possible)
Printlevel                                  ...      1
Contraction scheme used                     ... SEGMENTED contraction
Prescreening option                         ... SCHWARTZ
   Thresh                                   ... 2.500e-11
   Tcut                                     ... 2.500e-12
   Tpresel                                  ... 2.500e-12 
Coulomb Range Separation                    ... NOT USED
Exchange Range Separation                   ... NOT USED
Multipole approximations                    ... NOT USED
Finite Nucleus Model                        ... NOT USED
CABS basis                                  ... NOT available
Auxiliary Coulomb fitting basis             ... NOT available
Auxiliary J/K fitting basis                 ... NOT available
Auxiliary Correlation fitting basis         ... NOT available
Auxiliary 'external' fitting basis          ... NOT available

Checking pre-screening integrals            ... done (  0.0 sec) Dimension = 30
Check shell pair data                       ... done (  0.0 sec)
Shell pair information
Shell pair cut-off parameter TPreSel        ...   2.5e-12
Total number of shell pairs                 ...       465
Shell pairs after pre-screening             ...       445
Total number of primitive shell pairs       ...      2496
Primitive shell pairs kept                  ...      1684
          la=0 lb=0:    218 shell pairs
          la=1 lb=0:    121 shell pairs
          la=1 lb=1:     21 shell pairs
          la=2 lb=0:     61 shell pairs
          la=2 lb=1:     18 shell pairs
          la=2 lb=2:      6 shell pairs

Calculating one electron integrals          ... done (  0.0 sec)
Calculating Nuclear repulsion               ... done (  0.0 sec) ENN=     80.088730221907 Eh

Diagonalization of the overlap matrix:
Smallest eigenvalue                        ... 3.416e-02
Time for diagonalization                   ...    0.001 sec
Threshold for overlap eigenvalues          ... 1.000e-07
Number of eigenvalues below threshold      ... 0
Time for construction of square roots      ...    0.005 sec
Total time needed                          ...    0.015 sec

-------------------
DFT GRID GENERATION
-------------------

General Integration Accuracy     IntAcc      ... 4.388
Radial Grid Type                 RadialGrid  ... OptM3 with GC (2021)
Angular Grid (max. ang.)         AngularGrid ... 4 (Lebedev-302)
Angular grid pruning method      GridPruning ... 4 (adaptive)
Weight generation scheme         WeightScheme... mBecke (2022)
Basis function cutoff            BFCut       ... 1.0000e-11
Integration weight cutoff        WCut        ... 1.0000e-14
Partially contracted basis set               ... off
Rotationally invariant grid construction     ... off
Angular grids for H and He will be reduced by one unit

Total number of grid points                  ...    38065
Total number of batches                      ...      600
Average number of points per batch           ...       63
Average number of grid points per atom       ...     4229
Initializing property integral containers    ... done (  0.0 sec)

SHARK setup successfully completed in   0.6 seconds

Maximum memory used throughout the entire STARTUP-calculation: 13.3 MB
-------------------------------------------------------------------------------
                                 ORCA GUESS
                   Start orbitals & Density for SCF / CASSCF
-------------------------------------------------------------------------------

------------
SCF SETTINGS
------------
Hamiltonian:
 Ab initio Hamiltonian  Method          .... Hartree-Fock(GTOs)


General Settings:
 Integral files         IntName         .... frag
 Hartree-Fock type      HFTyp           .... RHF
 Total Charge           Charge          ....    0
 Multiplicity           Mult            ....    1
 Number of Electrons    NEL             ....   30
 Basis Dimension        Dim             ....   54
 Nuclear Repulsion      ENuc            ....     80.0887302219 Eh

Convergence Acceleration:
 AO-DIIS                CNVDIIS         .... on
   Start iteration      DIISMaxIt       ....    12
   Startup error        DIISStart       ....  0.200000
   # of expansion vecs  DIISMaxEq       ....     5
   Bias factor          DIISBfac        ....   1.050
   Max. coefficient     DIISMaxC        ....  10.000
 MO-DIIS                CNVKDIIS        .... off
 Trust-Rad. Augm. Hess. CNVTRAH         .... auto
   Auto Start mean grad. ratio tolernc. ....  1.125000
   Auto Start start iteration           ....    50
   Auto Start num. interpolation iter.  ....    10
   Max. Number of Micro iterations      ....    24
   Max. Number of Macro iterations      .... Maxiter - #DIIS iter
   Number of Davidson start vectors     ....     2
   Converg. threshold    (grad. norm)   ....   1.000e-05
   Grad. Scal. Fac. for Micro threshold ....   0.100
   Minimum threshold for Micro iter.    ....   1.000e-02
   NR start threshold (gradient norm)   ....   1.000e-04
   Initial trust radius                 ....   0.400
   Minimum AH scaling param. (alpha)    ....   1.000
   Maximum AH scaling param. (alpha)    .... 1000.000
   Quad. conv. algorithm                .... NR
   White noise on init. David. guess    .... on
   Maximum white noise                  ....   0.010
   Pseudo random numbers                .... off
   Inactive MOs                         .... canonical
   Orbital update algorithm             .... Taylor
   Preconditioner                       .... Diag
   Full preconditioner red. dimension   ....   250
 SOSCF                  CNVSOSCF        .... on
   Start iteration      SOSCFMaxIt      ....   150
   Startup grad/error   SOSCFStart      ....  0.003300
   Hessian update       SOSCFHessUp     .... L-BFGS
 Level Shifting         CNVShift        .... on
   Level shift para.    LevelShift      ....    0.2500
   Turn off err/grad.   ShiftErr        ....    0.0010
 Zerner damping         CNVZerner       .... off
 Static damping         CNVDamp         .... on
   Fraction old density DampFac         ....    0.7000
   Max. Damping (<1)    DampMax         ....    0.9800
   Min. Damping (>=0)   DampMin         ....    0.0000
   Turn off err/grad.   DampErr         ....    0.1000

SCF Procedure:
 Maximum # iterations   MaxIter         ....   125
 SCF integral mode      SCFMode         .... Direct
   Integral package                     .... SHARK and LIBINT hybrid scheme
 Reset frequency        DirectResetFreq ....    20
 Integral Threshold     Thresh          ....  2.500e-11 Eh
 Primitive CutOff       TCut            ....  2.500e-12 Eh

Convergence Tolerance:
 Convergence Check Mode ConvCheckMode   .... Total+1el-Energy
 Convergence forced     ConvForced      .... 0
 Energy Change          TolE            ....  1.000e-08 Eh
 1-El. energy change                    ....  1.000e-05 Eh
 Orbital Gradient       TolG            ....  1.000e-05
 Orbital Rotation angle TolX            ....  1.000e-05
 DIIS Error             TolErr          ....  5.000e-07

------------------------------
INITIAL GUESS: MODEL POTENTIAL
------------------------------
Loading Hartree-Fock densities                     ... done
Calculating cut-offs                               ... done
Initializing the effective Hamiltonian             ... done
Setting up the integral package (SHARK)            ... done
Starting the Coulomb interaction                   ... done (   0.1 sec)
Making the grid                                    ... done (   0.0 sec)
Mapping shells                                     ... done
Starting the XC term evaluation                    ... done (   0.0 sec)
Transforming the Hamiltonian                       ... done (   0.0 sec)
Diagonalizing the Hamiltonian                      ... done (   0.0 sec)
Back transforming the eigenvectors                 ... done (   0.0 sec)
Now organizing SCF variables                       ... done
                      ------------------
                      INITIAL GUESS DONE (   0.2 sec)
                      ------------------
             **** ENERGY FILE WAS UPDATED (frag.en.tmp) ****
Finished Guess after   0.3 sec
Maximum memory used throughout the entire GUESS-calculation: 5.8 MB

-------------------------------------------------------------------------------------------
                                      ORCA LEAN-SCF
                              memory conserving SCF solver
-------------------------------------------------------------------------------------------

----------------------------------------D-I-I-S--------------------------------------------
Iteration    Energy (Eh)           Delta-E    RMSDP     MaxDP     DIISErr   Damp  Time(sec)
-------------------------------------------------------------------------------------------
               ***  Starting incremental Fock matrix formation  ***
    1    -227.6979857006377017     0.00e+00  7.06e-03  7.34e-02  3.30e-01  0.700   0.1
    2    -227.8133479133396406    -1.15e-01  4.80e-03  5.05e-02  2.00e-01  0.700   0.1
                               ***Turning on AO-DIIS***
    3    -227.8758186765697076    -6.25e-02  1.92e-03  2.13e-02  1.11e-01  0.700   0.1
    4    -227.9136218915250822    -3.78e-02  1.18e-03  1.36e-02  7.44e-02  0.700   0.1
    5    -227.9386250306218074    -2.50e-02  2.77e-03  3.24e-02  5.28e-02  0.000   0.1
    6    -227.9944375281853866    -5.58e-02  2.22e-04  2.37e-03  3.35e-03  0.000   0.1
                              *** Initializing SOSCF ***
---------------------------------------S-O-S-C-F--------------------------------------
Iteration    Energy (Eh)           Delta-E    RMSDP     MaxDP     MaxGrad    Time(sec)
--------------------------------------------------------------------------------------
    7    -227.9944869964058114    -4.95e-05  1.32e-04  1.18e-03  1.15e-03     0.1
               *** Restarting incremental Fock matrix formation ***
    8    -227.9944969986367767    -1.00e-05  5.49e-05  4.94e-04  2.59e-04     0.1
    9    -227.9944980431721149    -1.04e-06  3.39e-05  2.39e-04  9.14e-05     0.1
   10    -227.9944982311081105    -1.88e-07  4.31e-06  5.51e-05  4.21e-05     0.1
   11    -227.9944982403486904    -9.24e-09  1.12e-06  1.13e-05  7.51e-06     0.1
                 **** Energy Check signals convergence ****

               *****************************************************
               *                     SUCCESS                       *
               *           SCF CONVERGED AFTER  11 CYCLES          *
               *****************************************************

             **** ENERGY FILE WAS UPDATED (frag.en.tmp) ****

----------------
TOTAL SCF ENERGY
----------------

Total Energy       :       -227.99449824034869 Eh           -6204.04570 eV

Components:
Nuclear Repulsion  :         80.08873022190667 Eh            2179.32514 eV
Electronic Energy  :       -308.08322846225536 Eh           -8383.37085 eV
One Electron Energy:       -473.41760083284044 Eh          -12882.34784 eV
Two Electron Energy:        165.33437237058507 Eh            4498.97700 eV

Virial components:
Potential Energy   :       -457.14272011928347 Eh          -12439.48583 eV
Kinetic Energy     :        229.14822187893475 Eh            6235.44012 eV
Virial Ratio       :          1.99496516434155

---------------
SCF CONVERGENCE
---------------

  Last Energy change         ...    9.2406e-09  Tolerance :   1.0000e-08
  Last MAX-Density change    ...    1.1310e-05  Tolerance :   1.0000e-07
  Last RMS-Density change    ...    1.1241e-06  Tolerance :   5.0000e-09
  Last DIIS Error            ...    1.1496e-03  Tolerance :   5.0000e-07
  Last Orbital Gradient      ...    7.5072e-06  Tolerance :   1.0000e-05
  Last Orbital Rotation      ...    5.2045e-06  Tolerance :   1.0000e-05


----------------
ORBITAL ENERGIES
----------------

  NO   OCC          E(Eh)            E(eV) 
   0   2.0000     -20.575570      -559.8897 
   1   2.0000     -20.547175      -559.1171 
   2   2.0000     -20.496580      -557.7403 
   3   2.0000      -1.428836       -38.8806 
   4   2.0000      -1.400165       -38.1004 
   5   2.0000      -1.352067       -36.7916 
   6   2.0000      -0.790887       -21.5211 
   7   2.0000      -0.762377       -20.7453 
   8   2.0000      -0.721353       -19.6290 
   9   2.0000      -0.628003       -17.0888 
  10   2.0000      -0.597706       -16.2644 
  11   2.0000      -0.554788       -15.0965 
  12   2.0000      -0.540164       -14.6986 
  13   2.0000      -0.511918       -13.9300 
  14   2.0000      -0.466840       -12.7034 
  15   0.0000       0.184276         5.0144 
  16   0.0000       0.243868         6.6360 
  17   0.0000       0.297915         8.1067 
  18   0.0000       0.321322         8.7436 
  19   0.0000       0.335764         9.1366 
  20   0.0000       0.450633        12.2623 
  21   0.0000       1.004625        27.3372 
  22   0.0000       1.045226        28.4420 
  23   0.0000       1.098031        29.8789 
  24   0.0000       1.122502        30.5448 
  25   0.0000       1.154701        31.4210 
*Only the first 10 virtual orbitals were printed.

                    ********************************
                    * MULLIKEN POPULATION ANALYSIS *
                    ********************************

-----------------------
MULLIKEN ATOMIC CHARGES
-----------------------
   0 O :   -0.950706
   1 H :    0.446079
   2 H :    0.484212
   3 O :   -0.893663
   4 H :    0.460218
   5 H :    0.449857
   6 O :   -0.892144
   7 H :    0.442834
   8 H :    0.453313
Sum of atomic charges:    0.0000000

--------------------------------
MULLIKEN REDUCED ORBITAL CHARGES
--------------------------------
  0 O s       :     3.856454  s :     3.856454
      pz      :     1.912549  p :     5.061392
      px      :     1.521982
      py      :     1.626861
      dz2     :     0.004493  d :     0.032861
      dxz     :     0.003003
      dyz     :     0.003973
      dx2y2   :     0.012498
      dxy     :     0.008893

  1 H s       :     0.553921  s :     0.553921

  2 H s       :     0.515788  s :     0.515788

  3 O s       :     3.843113  s :     3.843113
      pz      :     1.850075  p :     5.018416
      px      :     1.792635
      py      :     1.375706
      dz2     :     0.003008  d :     0.032134
      dxz     :     0.006641
      dyz     :     0.008430
      dx2y2   :     0.000788
      dxy     :     0.013267

  4 H s       :     0.539782  s :     0.539782

  5 H s       :     0.550143  s :     0.550143

  6 O s       :     3.848581  s :     3.848581
      pz      :     1.714216  p :     5.010134
      px      :     1.709538
      py      :     1.586379
      dz2     :     0.004607  d :     0.033430
      dxz     :     0.009514
      dyz     :     0.002905
      dx2y2   :     0.001721
      dxy     :     0.014684

  7 H s       :     0.557166  s :     0.557166

  8 H s       :     0.546687  s :     0.546687



                     *******************************
                     * LOEWDIN POPULATION ANALYSIS *
                     *******************************

----------------------
LOEWDIN ATOMIC CHARGES
----------------------
   0 O :   -0.646657
   1 H :    0.309932
   2 H :    0.299838
   3 O :   -0.607829
   4 H :    0.323206
   5 H :    0.316171
   6 O :   -0.622863
   7 H :    0.312532
   8 H :    0.315670

-------------------------------
LOEWDIN REDUCED ORBITAL CHARGES
-------------------------------
  0 O s       :     3.545295  s :     3.545295
      pz      :     1.912861  p :     5.060861
      px      :     1.512376
      py      :     1.635624
      dz2     :     0.005007  d :     0.040502
      dxz     :     0.003747
      dyz     :     0.004602
      dx2y2   :     0.015827
      dxy     :     0.011319

  1 H s       :     0.690068  s :     0.690068

  2 H s       :     0.700162  s :     0.700162

  3 O s       :     3.547708  s :     3.547708
      pz      :     1.856229  p :     5.019464
      px      :     1.790656
      py      :     1.372579
      dz2     :     0.003591  d :     0.040657
      dxz     :     0.007098
      dyz     :     0.011024
      dx2y2   :     0.001696
      dxy     :     0.017247

  4 H s       :     0.676794  s :     0.676794

  5 H s       :     0.683829  s :     0.683829

  6 O s       :     3.555064  s :     3.555064
      pz      :     1.718064  p :     5.025739
      px      :     1.723354
      py      :     1.584322
      dz2     :     0.005561  d :     0.042060
      dxz     :     0.011544
      dyz     :     0.004470
      dx2y2   :     0.001788
      dxy     :     0.018697

  7 H s       :     0.687468  s :     0.687468

  8 H s       :     0.684330  s :     0.684330



                      *****************************
                      * MAYER POPULATION ANALYSIS *
                      *****************************

  NA   - Mulliken gross atomic population
  ZA   - Total nuclear charge
  QA   - Mulliken gross atomic charge
  VA   - Mayer's total valence
  BVA  - Mayer's bonded valence
  FA   - Mayer's free valence

  ATOM       NA         ZA         QA         VA         BVA        FA
  0 O      8.9507     8.0000    -0.9507     1.4947     1.4947    -0.0000
  1 H      0.5539     1.0000     0.4461     0.7764     0.7764     0.0000
  2 H      0.5158     1.0000     0.4842     0.7470     0.7470     0.0000
  3 O      8.8937     8.0000    -0.8937     1.5735     1.5735    -0.0000
  4 H      0.5398     1.0000     0.4602     0.7558     0.7558     0.0000
  5 H      0.5501     1.0000     0.4499     0.7627     0.7627     0.0000
  6 O      8.8921     8.0000    -0.8921     1.5597     1.5597     0.0000
  7 H      0.5572     1.0000     0.4428     0.7683     0.7683    -0.0000
  8 H      0.5467     1.0000     0.4533     0.7652     0.7652    -0.0000

  Mayer bond orders larger than 0.100000
B(  0-O ,  1-H ) :   0.7697 B(  0-O ,  2-H ) :   0.7169 B(  3-O ,  4-H ) :   0.7636 
B(  3-O ,  5-H ) :   0.7701 B(  6-O ,  7-H ) :   0.7769 B(  6-O ,  8-H ) :   0.7625 


-------
TIMINGS
-------

Total SCF time: 0 days 0 hours 0 min 1 sec 

Total time                  ....       1.221 sec
Sum of individual times     ....       1.156 sec  ( 94.7%)

SCF preparation             ....       0.056 sec  (  4.6%)
Fock matrix formation       ....       0.776 sec  ( 63.5%)
  Startup                   ....       0.030 sec  (  3.9% of F)
  Coulomb+Exchange Fock     ....       0.676 sec  ( 87.2% of F)
Diagonalization             ....       0.000 sec  (  0.0%)
Density matrix formation    ....       0.096 sec  (  7.9%)
Total Energy calculation    ....       0.026 sec  (  2.2%)
Population analysis         ....       0.021 sec  (  1.7%)
Orbital Transformation      ....       0.013 sec  (  1.1%)
Orbital Orthonormalization  ....       0.000 sec  (  0.0%)
DIIS solution               ....       0.145 sec  ( 11.9%)
SOSCF solution              ....       0.023 sec  (  1.9%)
Finished LeanSCF after   1.2 sec

Maximum memory used throughout the entire LEANSCF-calculation: 7.8 MB

-------------------------   --------------------
FINAL SINGLE POINT ENERGY      -227.994498240349
-------------------------   --------------------

------------------------------------------------------------------------------
                         ORCA SCF GRADIENT CALCULATION
------------------------------------------------------------------------------

Nuc. rep. gradient        (SHARK) ... done (  0.0 sec)
HCore & Overlap gradient  (SHARK) ... done (  0.0 sec)
Two-electron gradient     (SHARK) ... done (  0.3 sec)

------------------
CARTESIAN GRADIENT
------------------

   1   O   :    0.056061235   -0.114111557    0.011339520
   2   H   :    0.052544430    0.097221501    0.028926334
   3   H   :   -0.106392352    0.016466062   -0.039037847
   4   O   :    0.093678780    0.018521937    0.077929124
   5   H   :   -0.047234730   -0.102364244   -0.022278192
   6   H   :   -0.049022066    0.086183920   -0.056435993
   7   O   :    0.115600925    0.019342692    0.042450701
   8   H   :   -0.048152082    0.065424888   -0.078861161
   9   H   :   -0.067084141   -0.086685200    0.035967514

Difference to translation invariance:
           :   -0.0000000000    0.0000000000    0.0000000000

Difference to rotation invariance:
           :   -0.0000008130    0.0000002796   -0.0000001041

Norm of the Cartesian gradient     ...    0.3543114440
RMS gradient                       ...    0.0681872692
MAX gradient                       ...    0.1156009250

-------
TIMINGS
-------

Total SCF gradient time     ....        0.302 sec

Densities                   ....       0.000 sec  (  0.0%)
One electron gradient       ....       0.020 sec  (  6.6%)
Two electron gradient       ....       0.282 sec  ( 93.3%)

Maximum memory used throughout the entire SCFGRAD-calculation: 13.6 MB

------------------------------------------------------------------------------
                              ORCA PROPERTY CALCULATIONS
------------------------------------------------------------------------------

GBWName                                 ... frag.gbw
Number of atoms                         ...      9
Number of basis functions               ...     54
Max core memory                         ...   1024 MB

Electric properties:
Dipole moment                           ... YES
Quadrupole moment                       ...  NO
Static polarizability (Dipole/Dipole)   ...  NO
Static polarizability (Dipole/Quad.)    ...  NO
Static polarizability (Quad./Quad.)     ...  NO
Static polarizability (Velocity)        ...  NO

Atomic electric properties:
Dipole moment                           ...  NO
Quadrupole moment                       ...  NO
Static polarizability                   ...  NO

Choice of electric origin               ... Center of mass
Position of electric origin             ...    42.708699    87.161466    77.049063

General magnetic properties:
Magnetizability                         ...  NO

EPR properties:
g-Tensor (aka g-matrix)                 ...  NO
Zero-Field splitting spin-orbit         ...  NO
Zero-field splitting spin-spin          ...  NO
Hyperfine couplings                     ...  NO (   0 nuclei)
Quadrupole couplings                    ...  NO (   0 nuclei)
Contact density                         ...  NO (   0 nuclei)

NMR properties:
Chemical shifts                         ...  NO (   0 nuclei)
Spin-rotation constants                 ...  NO (   0 nuclei)
Spin-spin couplings                     ...  NO (   0 nuclei,    0 pairs)

Choice of magnetic origin               ... GIAO
Position of magnetic origin             ...     0.000000     0.000000     0.000000

Properties with geometric perturbations:
SCF Hessian                             ...  NO
IR spectrum                             ...  NO
VCD spectrum                            ...  NO
X-ray spectroscopy properties:
SCF XES/XAS/RIXS spectra                ...  NO


-------------
DIPOLE MOMENT
-------------

Method             : SCF
Type of density    : Electron Density
Multiplicity       :   1
Irrep              :   0
Energy             :  -227.9944982403486904 Eh
Relativity type    : 
Basis              : AO
                                X                 Y                 Z
Electronic contribution:      0.038796267       0.021392239      -0.034983608
Nuclear contribution   :      1.889691707      -0.575643969       0.961642891
                        -----------------------------------------
Total Dipole Moment    :      1.928487974      -0.554251731       0.926659283
                        -----------------------------------------
Magnitude (a.u.)       :      2.210194171
Magnitude (Debye)      :      5.617867123



--------------------
Rotational spectrum 
--------------------
 
Rotational constants in cm-1:             0.233955             0.137697             0.087664 
Rotational constants in MHz :          7013.798362          4128.040078          2628.093918 

Dipole components along the rotational axes: 
x,y,z [a.u.] :     0.761852     1.996960     0.562752 
x,y,z [Debye]:     1.936474     5.075869     1.430403 

 

Dipole moment calculation done in   0.0 sec 

Maximum memory used throughout the entire PROP-calculation: 2.2 MB

--------------------------------
SUGGESTED CITATIONS FOR THIS RUN
--------------------------------

Below you find a list of papers that are relevant to this ORCA run
We neither can nor want to force you to cite these papers, but we appreciate if you do
You receive ORCA, which is the product of decades of hard work by many enthusiastic individuals, for free
The only thing we kindly ask in return is that you cite our papers,
We deeply appreciate it, if you show your appreciation for ORCA by not just citing the generic ORCA reference.

Please note that relegating all ORCA citations to the supporting information does *not* help us.
SI sections are not indexed - citations you put there will not count into any citation statistics
But we need these citations in order to attract the funding resources that allow us to do what we are doing

Therefore, if you are a happy ORCA user, please consider citing a few of the papers listed below in the main body of your paper

In addition to the list printed below, the program has created the file frag.bibtex that contains the list in bibtex format
You can import this file easily into all common literature databanks and citation aid programs


List of essential papers. We consider these as the minimum necessary citations

  1. Neese,F.
     Software update: the ORCA program system, version 5.0
     WIRES Comput. Molec. Sci., 2022 12(1)e1606
     doi.org/10.1002/wcms.1606

List of papers to cite with high priority. The work reported in these papers was absolutely
necessary for this run to complete.
Our perspective: the developers of density functionals and basis sets usually get cited in chemistry papers
Good! But without the algorithms to do something with them, the functionals or basis sets would not do anything.
Hence, in our opinion, the algorithm design and method developments papers are equally worthy of getting cited

  1. Neese,F.
     The SHARK Integral Generation and Digestion System
     J. Comp. Chem., 2022  1-16
     doi.org/10.1002/jcc.26942

List of suggested additional citations. These are papers that are important in the 'surrounding' of 
of this run, or papers that preceded the highly important papers. If you like your results we are grateful for a citation.

  1. Neese,F.
     The ORCA program system
     WIRES Comput. Molec. Sci., 2012 2(1)73-78
     doi.org/10.1002/wcms.81
  2. Neese,F.
     Software update: the ORCA program system, version 4.0
     WIRES Comput. Molec. Sci., 2018 8(1)1-6
     doi.org/10.1002/wcms.1327
  3. Neese,F.; Wennmohs,F.; Becker,U.; Riplinger,C.
     The ORCA quantum chemistry program package
     J. Chem. Phys., 2020 152 Art. No. L224108
     doi.org/10.1063/5.0004608

List of optional additional citations

  1. Neese,F.
     Approximate second-order SCF convergence for spin unrestricted wavefunctions
     Chem. Phys. Lett., 2000 325(1-3)93-98
     doi.org/10.1016/s0009-2614(00)00662-x

Timings for individual modules:

Sum of individual times          ...        2.835 sec (=   0.047 min)
Startup calculation              ...        0.758 sec (=   0.013 min)  26.7 %
SCF iterations                   ...        1.644 sec (=   0.027 min)  58.0 %
Property calculations            ...        0.077 sec (=   0.001 min)   2.7 %
SCF Gradient evaluation          ...        0.356 sec (=   0.006 min)  12.6 %
                             ****ORCA TERMINATED NORMALLY****
TOTAL RUN TIME: 0 days 0 hours 0 minutes 3 seconds 606 msec
