
                                 *****************
                                 * O   R   C   A *
                                 *****************

                                            #,                                       
                                            ###                                      
                                            ####                                     
                                            #####                                    
                                            ######                                   
                                           ########,                                 
                                     ,,################,,,,,                         
                               ,,#################################,,                 
                          ,,##########################################,,             
                       ,#########################################, ''#####,          
                    ,#############################################,,   '####,        
                  ,##################################################,,,,####,       
                ,###########''''           ''''###############################       
              ,#####''   ,,,,##########,,,,          '''####'''          '####       
            ,##' ,,,,###########################,,,                        '##       
           ' ,,###''''                  '''############,,,                           
         ,,##''                                '''############,,,,        ,,,,,,###''
      ,#''                                            '''#######################'''  
     '                                                          ''''####''''         
             ,#######,   #######,   ,#######,      ##                                
            ,#'     '#,  ##    ##  ,#'     '#,    #''#        ,####,   ,####,        
            ##       ##  ##   ,#'  ##            #'  '#       #'       #'  '#        
            ##       ##  #######   ##           ,######,      #####,   #    #        
            '#,     ,#'  ##    ##  '#,     ,#' ,#      #,     #,   #   #,  ,#        
             '#######'   ##     ##  '#######'  #'      '#     '####' # '####'        



                #########################################################
                #                        -***-                          #
                #          Department of theory and spectroscopy        #
                #                                                       #
                #                      Frank Neese                      #
                #                                                       #
                #     Directorship, Architecture, Infrastructure        #
                #                    SHARK, DRIVERS                     #
                #        Core code/Algorithms in most modules           #
                #                                                       #
                #        Max Planck Institute fuer Kohlenforschung      #
                #                Kaiser Wilhelm Platz 1                 #
                #                 D-45470 Muelheim/Ruhr                 #
                #                      Germany                          #
                #                                                       #
                #                  All rights reserved                  #
                #                        -***-                          #
                #########################################################


                         Program Version 6.0.1  -  RELEASE   -


 With contributions from (in alphabetic order):
[Max-Planck-Institut fuer Kohlenforschung]                               
  Daniel Aravena         : Magnetic Suceptibility                        
  Michael Atanasov       : Ab Initio Ligand Field Theory (pilot matlab implementation)
  Alexander A. Auer      : GIAO ZORA, VPT2 properties, NMR spectrum      
  Ute Becker             : All parallelization in ORCA, NUMFREQ, NUMCALC 
  Giovanni Bistoni       : ED, misc. LED, open-shell LED, HFLD           
  Martin Brehm           : Molecular dynamics                            
  Dmytro Bykov           : pre 5.0 version of the SCF Hessian            
  Marcos Casanova-Páez   : Triplet and SCS-CIS(D). UHF-(DLPNO)-IP/EA/STEOM-CCSD. UHF-CVS-IP/STEOM-CCSD   
  Vijay G. Chilkuri      : MRCI spin determinant printing, contributions to CSF-ICE 
  Pauline Colinet        : FMM embedding                                 
  Dipayan Datta          : RHF DLPNO-CCSD density                        
  Achintya Kumar Dutta   : EOM-CC, STEOM-CC                              
  Nicolas Foglia         : Exact transition moments, OPA infrastructure, MCD improvements    
  Dmitry Ganyushin       : Spin-Orbit,Spin-Spin,Magnetic field MRCI      
  Miquel Garcia-Rates    : C-PCM and meta-GGA Hessian, CCSD/C-PCM, Gaussian charge scheme 
  Tiago L. C. Gouveia    : GS-ROHF, GS-ROCIS                             
  Yang Guo               : DLPNO-NEVPT2, F12-NEVPT2, CIM, IAO-localization        
  Andreas Hansen         : Spin unrestricted coupled pair/coupled cluster methods 
  Ingolf Harden          : AUTO-CI MPn and infrastructure                
  Benjamin Helmich-Paris : MC-RPA, TRAH-(SCF,CASSCF), AVAS, COSX integrals, SCF dyn. polar. 
  Lee Huntington         : MR-EOM, pCC                                   
  Robert Izsak           : Overlap fitted RIJCOSX, COSX-SCS-MP3, EOM     
  Riya Kayal             : Wick's Theorem for AUTO-CI, AUTO-CI UHF-CCSDT 
  Emily Kempfer          : AUTO-CI, RHF CISDT and CCSDT                  
  Christian Kollmar      : KDIIS, OOCD, Brueckner-CCSD(T), CCSD density, CASPT2, CASPT2-K, improved NEVPT2 
  Axel Koslowski         : Symmetry handling                             
  Simone Kossmann        : meta-GGA functionals, TD-DFT gradient, OOMP2, (MP2 Hessian; deprecated post 5.0) 
  Lucas Lang             : DCDCAS                                        
  Marvin Lechner         : AUTO-CI (C++ implementation), FIC-MRCC        
  Spencer Leger          : CASSCF response                               
  Dagmar Lenk            : GEPOL surface, SMD, ORCA-2-JSON               
  Dimitrios Liakos       : Extrapolation schemes; Compound Job, initial MDCI parallelization 
  Dimitrios Manganas     : Further ROCIS development; embedding schemes. LFT, Crystal Embedding 
  Dimitrios Pantazis     : SARC Basis sets                               
  Anastasios Papadopoulos: AUTO-CI, single reference methods and gradients 
  Taras Petrenko         : pre 6.0 DFT Hessian and TD-DFT gradient, (ASA, deprecated), ECA, 1-Electron XAS/XES, NRVS 
  Peter Pinski           : DLPNO-MP2, DLPNO-MP2 Gradient                 
  Christoph Reimann      : Effective Core Potentials                     
  Marius Retegan         : Local ZFS, SOC                                
  Christoph Riplinger    : Optimizer, TS searches, QM/MM, DLPNO-CCSD(T), (RO)-DLPNO pert. Triples 
  Michael Roemelt        : Original ROCIS implementation                 
  Masaaki Saitow         : Open-shell DLPNO-CCSD energy and density      
  Barbara Sandhoefer     : DKH picture change effects                    
  Kantharuban Sivalingam : CASSCF convergence/infrastructure, NEVPT2 and variants, FIC-MRCI 
  Bernardo de Souza      : ESD, SOC TD-DFT                               
  Georgi L. Stoychev     : AutoAux, RI-MP2 NMR, DLPNO-MP2 response, X2C  
  Van Anh Tran           : RI-MP2 g-tensors                              
  Willem Van den Heuvel  : Paramagnetic NMR                              
  Zikuan Wang            : NOTCH, Electric field optimization            
  Frank Wennmohs         : Technical directorship and infrastructure     
  Hang Xu                : AUTO-CI-Response properties                   
                                                                         
[FACCTs GmbH]                                                            
  Markus Bursch, Miquel Garcia-Rates, Christoph Riplinger, Bernardo de Souza, Georgi L. Stoychev 
                                                                 
  APM, Basis sets (HGBS, AHGBS, def-TZVP (Ac-Lr), def2-XVPD (La-Lu)), CI-OPT, improved COSX, DLPNO-Multilevel,           
  DOCKER, DRACO, updates on ESD, GOAT, IRC, LR-CPCM, MBIS, meta-GGA TD-DFT gradient, ML-optimized integration grids, 
  MM, NACMEs, nearIR, NEB, NEB-TS, NL-DFT gradient (VV10), 2- and 3-layer-ONIOM, interface openCOSMO-RS, QMMM,   
  Crystal-QMMM, SF, symmetry and pop. for TD-DFT, r2SCAN hybrids, SOLVATOR                                   
                                                                         
[Other institutions]                                                     
  V. Asgeirsson          : NEB                                           
  Christoph Bannwarth    : sTDA-DFT, sTD-DFT, PBEh-3c, B97-3c, D3        
  Sebastian Ehlert       : rSCAN, r2SCAN, r2SCAN-3c, D4, dhf basis sets  
  Marvin Friede          : D4 for Fr, Ra, Ac-Lr                          
  Lars Goerigk           : TD-DFT with DH, B97 family of functionals     
  Stefan Grimme          : VdW corrections, initial TS optimization, DFT functionals, gCP, sTDA/sTD-DF 
  Waldemar Hujo          : DFT-NL                                        
  H. Jonsson             : NEB                                           
  Holger Kruse           : gCP                                           
  Marcel Mueller         : wB97X-3c, vDZP basis set                      
  Hagen Neugebauer       : wr2SCAN                                       
  Tobias Risthaus        : range-separated hybrid DFT                    
  Lukas Wittmann         : regularized MP2, r2SCAN double-hybrids, wr2SCAN        
                                                                         
We gratefully acknowledge several colleagues who have allowed us to      
interface, adapt or use parts of their codes:                            
  Ed Valeev, F. Pavosevic, A. Kumar             : LibInt (2-el integral package), F12 methods 
  Garnet Chan, S. Sharma, J. Yang, R. Olivares  : DMRG                   
  Ulf Ekstrom                                   : XCFun DFT Library      
  Mihaly Kallay                                 : mrcc  (arbitrary order and MRCC methods)
  Frank Weinhold                                : gennbo (NPA and NBO analysis)           
  Simon Mueller                                 : openCOSMO-RS                            
  Christopher J. Cramer and Donald G. Truhlar   : smd solvation model                     
  S Lehtola, MJT Oliveira, MAL Marques          : LibXC Library                           
  Liviu Ungur et al                             : ANISO software                          


 Your calculation uses the libint2 library for the computation of 2-el integrals
 For citations please refer to: http://libint.valeyev.net

 Your ORCA version has been built with support for libXC version: 6.2.2
 For citations please refer to: https://libxc.gitlab.io

 This ORCA versions uses:
   CBLAS   interface :  Fast vector & matrix operations
   LAPACKE interface :  Fast linear algebra routines
   SCALAPACK package :  Parallel linear algebra routines
   Shared memory     :  Shared parallel matrices
   BLAS/LAPACK       :  OpenBLAS 0.3.27  USE64BITINT DYNAMIC_ARCH NO_AFFINITY SkylakeX SINGLE_THREADED
        Core in use  :  SkylakeX
   Copyright (c) 2011-2014, The OpenBLAS Project


================================================================================

----- Orbital basis set information -----
Your calculation utilizes the basis: 6-31G*
   H-He, Li-Ne : W. J. Hehre, R. Ditchfield and J.A. Pople, J. Chem. Phys. 56, 2257 (1972).
                 Note: He and Ne are unpublished basis sets taken from the Gaussian program.
                 Note: Li and B from J. D. Dill and J. A. Pople, J. Chem. Phys. 62, 2921 (1975).
   Na - Ar     : M. M. Francl, W. J. Pietro, W. J. Hehre, J. S. Binkley, M. S. Gordon, 
                 D. J. DeFrees and J. A. Pople, J. Chem. Phys. 77, 3654 (1982).
   K - Zn      : V. A. Rassolov, J. A. Pople, M. A. Ratner, and T. L. Windus, J. Chem. Phys. 109, 1223 (1998).

================================================================================
                                        WARNINGS
                       Please study these warnings very carefully!
================================================================================


================================================================================
                                       INPUT FILE
================================================================================
NAME = frag.inp
|  1> !HF 6-31G* EnGrad
|  2> %pal nprocs 1 end
|  3> *xyz 0 1
|  4> O 24.10596000 46.93173000 41.50917000
|  5> H 24.52212000 47.66562000 41.73132000
|  6> H 24.52341000 46.31399000 41.96223000
|  7> O 21.78987000 47.25010000 37.48256000
|  8> H 21.14108000 47.76263000 37.20411000
|  9> H 21.67133000 47.22017000 38.34638000
| 10> O 22.25294000 44.28778000 39.87163000
| 11> H 22.68414000 43.83080000 40.47691000
| 12> H 22.81575000 44.91633000 39.64956000
| 13> *
| 14> 
| 15>                          ****END OF INPUT****
================================================================================

                     *******************************
                     * Energy+Gradient Calculation *
                     *******************************

---------------------------------
CARTESIAN COORDINATES (ANGSTROEM)
---------------------------------
  O     24.105960   46.931730   41.509170
  H     24.522120   47.665620   41.731320
  H     24.523410   46.313990   41.962230
  O     21.789870   47.250100   37.482560
  H     21.141080   47.762630   37.204110
  H     21.671330   47.220170   38.346380
  O     22.252940   44.287780   39.871630
  H     22.684140   43.830800   40.476910
  H     22.815750   44.916330   39.649560

----------------------------
CARTESIAN COORDINATES (A.U.)
----------------------------
  NO LB      ZA    FRAG     MASS         X           Y           Z
   0 O     8.0000    0    15.999   45.553663   88.688117   78.440963
   1 H     1.0000    0     1.008   46.340091   90.074968   78.860766
   2 H     1.0000    0     1.008   46.342529   87.520757   79.297123
   3 O     8.0000    0    15.999   41.176887   89.289749   70.831773
   4 H     1.0000    0     1.008   39.950851   90.258290   70.305579
   5 H     1.0000    0     1.008   40.952879   89.233189   72.464156
   6 O     8.0000    0    15.999   42.051962   83.691775   75.346461
   7 H     1.0000    0     1.008   42.866812   82.828208   76.490275
   8 H     1.0000    0     1.008   43.115519   84.879563   74.926810

--------------------------------
INTERNAL COORDINATES (ANGSTROEM)
--------------------------------
 O      0   0   0     0.000000000000     0.00000000     0.00000000
 H      1   0   0     0.872430111929     0.00000000     0.00000000
 H      1   2   0     0.872427976225   103.60043743     0.00000000
 O      1   2   3     4.656094977242   113.57632991   201.36891215
 H      4   1   2     0.872439033687   133.32203144   299.92133120
 H      4   1   2     0.872429096775    37.71829684   253.63978049
 O      6   4   1     3.356124083925   117.15578849   289.08001104
 H      7   6   4     0.872426523439   149.16283161   122.62062527
 H      7   6   4     0.872436406565    50.70030800    83.72012381

---------------------------
INTERNAL COORDINATES (A.U.)
---------------------------
 O      0   0   0     0.000000000000     0.00000000     0.00000000
 H      1   0   0     1.648653982532     0.00000000     0.00000000
 H      1   2   0     1.648649946636   103.60043743     0.00000000
 O      1   2   3     8.798744360514   113.57632991   201.36891215
 H      4   1   2     1.648670842211   133.32203144   299.92133120
 H      4   1   2     1.648652064169    37.71829684   253.63978049
 O      6   4   1     6.342155390075   117.15578849   289.08001104
 H      7   6   4     1.648647201269   149.16283161   122.62062527
 H      7   6   4     1.648665877670    50.70030800    83.72012381

---------------------
BASIS SET INFORMATION
---------------------
There are 2 groups of distinct atoms

 Group   1 Type O   : 10s4p1d contracted to 3s2p1d pattern {631/31/1}
 Group   2 Type H   : 4s contracted to 2s pattern {31}

Atom   0O    basis set group =>   1
Atom   1H    basis set group =>   2
Atom   2H    basis set group =>   2
Atom   3O    basis set group =>   1
Atom   4H    basis set group =>   2
Atom   5H    basis set group =>   2
Atom   6O    basis set group =>   1
Atom   7H    basis set group =>   2
Atom   8H    basis set group =>   2
------------------------------------------------------------------------------
                             ORCA STARTUP CALCULATIONS
------------------------------------------------------------------------------
------------------------------------------------------------------------------
                   ___                                                        
                  /   \      - P O W E R E D   B Y -                         
                 /     \                                                     
                 |  |  |   _    _      __       _____    __    __             
                 |  |  |  | |  | |    /  \     |  _  \  |  |  /  |          
                  \  \/   | |  | |   /    \    | | | |  |  | /  /          
                 / \  \   | |__| |  /  /\  \   | |_| |  |  |/  /          
                |  |  |   |  __  | /  /__\  \  |    /   |      \           
                |  |  |   | |  | | |   __   |  |    \   |  |\   \          
                \     /   | |  | | |  |  |  |  | |\  \  |  | \   \       
                 \___/    |_|  |_| |__|  |__|  |_| \__\ |__|  \__/        
                                                                              
                      - O R C A' S   B I G   F R I E N D -                    
                                      &                                       
                       - I N T E G R A L  F E E D E R -                       
                                                                              
 v1 FN, 2020, v2 2021, v3 2022-2024                                           
------------------------------------------------------------------------------


----------------------
SHARK INTEGRAL PACKAGE
----------------------

Number of atoms                             ...      9
Number of basis functions                   ...     54
Number of shells                            ...     30
Maximum angular momentum                    ...      2
Integral batch strategy                     ... SHARK/LIBINT Hybrid
RI-J (if used) integral strategy            ... SPLIT-RIJ (Revised 2003 algorithm where possible)
Printlevel                                  ...      1
Contraction scheme used                     ... SEGMENTED contraction
Prescreening option                         ... SCHWARTZ
   Thresh                                   ... 2.500e-11
   Tcut                                     ... 2.500e-12
   Tpresel                                  ... 2.500e-12 
Coulomb Range Separation                    ... NOT USED
Exchange Range Separation                   ... NOT USED
Multipole approximations                    ... NOT USED
Finite Nucleus Model                        ... NOT USED
CABS basis                                  ... NOT available
Auxiliary Coulomb fitting basis             ... NOT available
Auxiliary J/K fitting basis                 ... NOT available
Auxiliary Correlation fitting basis         ... NOT available
Auxiliary 'external' fitting basis          ... NOT available

Checking pre-screening integrals            ... done (  0.0 sec) Dimension = 30
Check shell pair data                       ... done (  0.0 sec)
Shell pair information
Shell pair cut-off parameter TPreSel        ...   2.5e-12
Total number of shell pairs                 ...       465
Shell pairs after pre-screening             ...       409
Total number of primitive shell pairs       ...      2496
Primitive shell pairs kept                  ...      1486
          la=0 lb=0:    203 shell pairs
          la=1 lb=0:    112 shell pairs
          la=1 lb=1:     20 shell pairs
          la=2 lb=0:     52 shell pairs
          la=2 lb=1:     16 shell pairs
          la=2 lb=2:      6 shell pairs

Calculating one electron integrals          ... done (  0.0 sec)
Calculating Nuclear repulsion               ... done (  0.0 sec) ENN=     69.806846114449 Eh

Diagonalization of the overlap matrix:
Smallest eigenvalue                        ... 4.537e-02
Time for diagonalization                   ...    0.000 sec
Threshold for overlap eigenvalues          ... 1.000e-07
Number of eigenvalues below threshold      ... 0
Time for construction of square roots      ...    0.002 sec
Total time needed                          ...    0.007 sec

-------------------
DFT GRID GENERATION
-------------------

General Integration Accuracy     IntAcc      ... 4.388
Radial Grid Type                 RadialGrid  ... OptM3 with GC (2021)
Angular Grid (max. ang.)         AngularGrid ... 4 (Lebedev-302)
Angular grid pruning method      GridPruning ... 4 (adaptive)
Weight generation scheme         WeightScheme... mBecke (2022)
Basis function cutoff            BFCut       ... 1.0000e-11
Integration weight cutoff        WCut        ... 1.0000e-14
Partially contracted basis set               ... off
Rotationally invariant grid construction     ... off
Angular grids for H and He will be reduced by one unit

Total number of grid points                  ...    38168
Total number of batches                      ...      601
Average number of points per batch           ...       63
Average number of grid points per atom       ...     4241
Initializing property integral containers    ... done (  0.0 sec)

SHARK setup successfully completed in   0.4 seconds

Maximum memory used throughout the entire STARTUP-calculation: 13.2 MB
-------------------------------------------------------------------------------
                                 ORCA GUESS
                   Start orbitals & Density for SCF / CASSCF
-------------------------------------------------------------------------------

------------
SCF SETTINGS
------------
Hamiltonian:
 Ab initio Hamiltonian  Method          .... Hartree-Fock(GTOs)


General Settings:
 Integral files         IntName         .... frag
 Hartree-Fock type      HFTyp           .... RHF
 Total Charge           Charge          ....    0
 Multiplicity           Mult            ....    1
 Number of Electrons    NEL             ....   30
 Basis Dimension        Dim             ....   54
 Nuclear Repulsion      ENuc            ....     69.8068461144 Eh

Convergence Acceleration:
 AO-DIIS                CNVDIIS         .... on
   Start iteration      DIISMaxIt       ....    12
   Startup error        DIISStart       ....  0.200000
   # of expansion vecs  DIISMaxEq       ....     5
   Bias factor          DIISBfac        ....   1.050
   Max. coefficient     DIISMaxC        ....  10.000
 MO-DIIS                CNVKDIIS        .... off
 Trust-Rad. Augm. Hess. CNVTRAH         .... auto
   Auto Start mean grad. ratio tolernc. ....  1.125000
   Auto Start start iteration           ....    50
   Auto Start num. interpolation iter.  ....    10
   Max. Number of Micro iterations      ....    24
   Max. Number of Macro iterations      .... Maxiter - #DIIS iter
   Number of Davidson start vectors     ....     2
   Converg. threshold    (grad. norm)   ....   1.000e-05
   Grad. Scal. Fac. for Micro threshold ....   0.100
   Minimum threshold for Micro iter.    ....   1.000e-02
   NR start threshold (gradient norm)   ....   1.000e-04
   Initial trust radius                 ....   0.400
   Minimum AH scaling param. (alpha)    ....   1.000
   Maximum AH scaling param. (alpha)    .... 1000.000
   Quad. conv. algorithm                .... NR
   White noise on init. David. guess    .... on
   Maximum white noise                  ....   0.010
   Pseudo random numbers                .... off
   Inactive MOs                         .... canonical
   Orbital update algorithm             .... Taylor
   Preconditioner                       .... Diag
   Full preconditioner red. dimension   ....   250
 SOSCF                  CNVSOSCF        .... on
   Start iteration      SOSCFMaxIt      ....   150
   Startup grad/error   SOSCFStart      ....  0.003300
   Hessian update       SOSCFHessUp     .... L-BFGS
 Level Shifting         CNVShift        .... on
   Level shift para.    LevelShift      ....    0.2500
   Turn off err/grad.   ShiftErr        ....    0.0010
 Zerner damping         CNVZerner       .... off
 Static damping         CNVDamp         .... on
   Fraction old density DampFac         ....    0.7000
   Max. Damping (<1)    DampMax         ....    0.9800
   Min. Damping (>=0)   DampMin         ....    0.0000
   Turn off err/grad.   DampErr         ....    0.1000

SCF Procedure:
 Maximum # iterations   MaxIter         ....   125
 SCF integral mode      SCFMode         .... Direct
   Integral package                     .... SHARK and LIBINT hybrid scheme
 Reset frequency        DirectResetFreq ....    20
 Integral Threshold     Thresh          ....  2.500e-11 Eh
 Primitive CutOff       TCut            ....  2.500e-12 Eh

Convergence Tolerance:
 Convergence Check Mode ConvCheckMode   .... Total+1el-Energy
 Convergence forced     ConvForced      .... 0
 Energy Change          TolE            ....  1.000e-08 Eh
 1-El. energy change                    ....  1.000e-05 Eh
 Orbital Gradient       TolG            ....  1.000e-05
 Orbital Rotation angle TolX            ....  1.000e-05
 DIIS Error             TolErr          ....  5.000e-07

------------------------------
INITIAL GUESS: MODEL POTENTIAL
------------------------------
Loading Hartree-Fock densities                     ... done
Calculating cut-offs                               ... done
Initializing the effective Hamiltonian             ... done
Setting up the integral package (SHARK)            ... done
Starting the Coulomb interaction                   ... done (   0.0 sec)
Making the grid                                    ... done (   0.1 sec)
Mapping shells                                     ... done
Starting the XC term evaluation                    ... done (   0.0 sec)
Transforming the Hamiltonian                       ... done (   0.0 sec)
Diagonalizing the Hamiltonian                      ... done (   0.0 sec)
Back transforming the eigenvectors                 ... done (   0.0 sec)
Now organizing SCF variables                       ... done
                      ------------------
                      INITIAL GUESS DONE (   0.1 sec)
                      ------------------
             **** ENERGY FILE WAS UPDATED (frag.en.tmp) ****
Finished Guess after   0.2 sec
Maximum memory used throughout the entire GUESS-calculation: 5.7 MB

-------------------------------------------------------------------------------------------
                                      ORCA LEAN-SCF
                              memory conserving SCF solver
-------------------------------------------------------------------------------------------

----------------------------------------D-I-I-S--------------------------------------------
Iteration    Energy (Eh)           Delta-E    RMSDP     MaxDP     DIISErr   Damp  Time(sec)
-------------------------------------------------------------------------------------------
               ***  Starting incremental Fock matrix formation  ***
    1    -227.6749641123878405     0.00e+00  7.21e-03  7.20e-02  3.30e-01  0.700   0.1
    2    -227.7963835195508295    -1.21e-01  4.90e-03  4.94e-02  2.01e-01  0.700   0.1
                               ***Turning on AO-DIIS***
    3    -227.8619814855966865    -6.56e-02  1.92e-03  2.14e-02  1.12e-01  0.700   0.1
    4    -227.9016001939612011    -3.96e-02  1.16e-03  1.38e-02  7.65e-02  0.700   0.1
    5    -227.9277842142847135    -2.62e-02  2.69e-03  3.28e-02  5.44e-02  0.000   0.1
                              *** Initializing SOSCF ***
---------------------------------------S-O-S-C-F--------------------------------------
Iteration    Energy (Eh)           Delta-E    RMSDP     MaxDP     MaxGrad    Time(sec)
--------------------------------------------------------------------------------------
    6    -227.9861703554172436    -5.84e-02  1.86e-04  1.81e-03  3.25e-03     0.1
               *** Restarting incremental Fock matrix formation ***
    7    -227.9862168440310484    -4.65e-05  1.24e-04  8.27e-04  5.58e-04     0.1
    8    -227.9862254308141587    -8.59e-06  8.64e-05  5.62e-04  3.42e-04     0.1
    9    -227.9862270272861906    -1.60e-06  1.16e-05  1.01e-04  8.30e-05     0.1
   10    -227.9862271053691529    -7.81e-08  1.46e-06  1.36e-05  8.72e-06     0.1
   11    -227.9862271072398698    -1.87e-09  7.72e-07  7.06e-06  2.79e-06     0.1
                 **** Energy Check signals convergence ****

               *****************************************************
               *                     SUCCESS                       *
               *           SCF CONVERGED AFTER  11 CYCLES          *
               *****************************************************

             **** ENERGY FILE WAS UPDATED (frag.en.tmp) ****

----------------
TOTAL SCF ENERGY
----------------

Total Energy       :       -227.98622710723987 Eh           -6203.82064 eV

Components:
Nuclear Repulsion  :         69.80684611444855 Eh            1899.54085 eV
Electronic Energy  :       -297.79307322168842 Eh           -8103.36149 eV
One Electron Energy:       -452.99971551698798 Eh          -12326.74894 eV
Two Electron Energy:        155.20664229529956 Eh            4223.38745 eV

Virial components:
Potential Energy   :       -457.12590159603189 Eh          -12439.02817 eV
Kinetic Energy     :        229.13967448879205 Eh            6235.20753 eV
Virial Ratio       :          1.99496618215887

---------------
SCF CONVERGENCE
---------------

  Last Energy change         ...    1.8707e-09  Tolerance :   1.0000e-08
  Last MAX-Density change    ...    7.0607e-06  Tolerance :   1.0000e-07
  Last RMS-Density change    ...    7.7204e-07  Tolerance :   5.0000e-09
  Last DIIS Error            ...    3.2492e-03  Tolerance :   5.0000e-07
  Last Orbital Gradient      ...    2.7946e-06  Tolerance :   1.0000e-05
  Last Orbital Rotation      ...    3.0412e-06  Tolerance :   1.0000e-05


----------------
ORBITAL ENERGIES
----------------

  NO   OCC          E(Eh)            E(eV) 
   0   2.0000     -20.553384      -559.2860 
   1   2.0000     -20.527388      -558.5786 
   2   2.0000     -20.525023      -558.5143 
   3   2.0000      -1.406538       -38.2738 
   4   2.0000      -1.380955       -37.5777 
   5   2.0000      -1.378477       -37.5103 
   6   2.0000      -0.769474       -20.9384 
   7   2.0000      -0.744827       -20.2678 
   8   2.0000      -0.740106       -20.1393 
   9   2.0000      -0.605119       -16.4661 
  10   2.0000      -0.578794       -15.7498 
  11   2.0000      -0.576150       -15.6778 
  12   2.0000      -0.520286       -14.1577 
  13   2.0000      -0.494525       -13.4567 
  14   2.0000      -0.492171       -13.3926 
  15   0.0000       0.197916         5.3856 
  16   0.0000       0.236699         6.4409 
  17   0.0000       0.267858         7.2888 
  18   0.0000       0.312472         8.5028 
  19   0.0000       0.328526         8.9396 
  20   0.0000       0.380925        10.3655 
  21   0.0000       1.039107        28.2755 
  22   0.0000       1.045948        28.4617 
  23   0.0000       1.092562        29.7301 
  24   0.0000       1.148465        31.2513 
  25   0.0000       1.152646        31.3651 
*Only the first 10 virtual orbitals were printed.

                    ********************************
                    * MULLIKEN POPULATION ANALYSIS *
                    ********************************

-----------------------
MULLIKEN ATOMIC CHARGES
-----------------------
   0 O :   -0.891338
   1 H :    0.449235
   2 H :    0.444437
   3 O :   -0.892184
   4 H :    0.442718
   5 H :    0.449348
   6 O :   -0.894314
   7 H :    0.438847
   8 H :    0.453251
Sum of atomic charges:   -0.0000000

--------------------------------
MULLIKEN REDUCED ORBITAL CHARGES
--------------------------------
  0 O s       :     3.845241  s :     3.845241
      pz      :     1.848579  p :     5.012958
      px      :     1.801678
      py      :     1.362702
      dz2     :     0.003151  d :     0.033139
      dxz     :     0.006949
      dyz     :     0.008421
      dx2y2   :     0.000843
      dxy     :     0.013775

  1 H s       :     0.550765  s :     0.550765

  2 H s       :     0.555563  s :     0.555563

  3 O s       :     3.846647  s :     3.846647
      pz      :     1.451024  p :     5.012178
      px      :     1.732734
      py      :     1.828421
      dz2     :     0.015149  d :     0.033358
      dxz     :     0.004307
      dyz     :     0.001225
      dx2y2   :     0.002653
      dxy     :     0.010024

  4 H s       :     0.557282  s :     0.557282

  5 H s       :     0.550652  s :     0.550652

  6 O s       :     3.847283  s :     3.847283
      pz      :     1.714627  p :     5.013692
      px      :     1.714776
      py      :     1.584289
      dz2     :     0.004563  d :     0.033339
      dxz     :     0.009509
      dyz     :     0.002865
      dx2y2   :     0.001703
      dxy     :     0.014699

  7 H s       :     0.561153  s :     0.561153

  8 H s       :     0.546749  s :     0.546749



                     *******************************
                     * LOEWDIN POPULATION ANALYSIS *
                     *******************************

----------------------
LOEWDIN ATOMIC CHARGES
----------------------
   0 O :   -0.627314
   1 H :    0.316198
   2 H :    0.312994
   3 O :   -0.627626
   4 H :    0.312553
   5 H :    0.314997
   6 O :   -0.627831
   7 H :    0.310383
   8 H :    0.315646

-------------------------------
LOEWDIN REDUCED ORBITAL CHARGES
-------------------------------
  0 O s       :     3.554485  s :     3.554485
      pz      :     1.855432  p :     5.031020
      px      :     1.810968
      py      :     1.364620
      dz2     :     0.003743  d :     0.041809
      dxz     :     0.007371
      dyz     :     0.011122
      dx2y2   :     0.001663
      dxy     :     0.017911

  1 H s       :     0.683802  s :     0.683802

  2 H s       :     0.687006  s :     0.687006

  3 O s       :     3.555089  s :     3.555089
      pz      :     1.456559  p :     5.030468
      px      :     1.741597
      py      :     1.832311
      dz2     :     0.020050  d :     0.042069
      dxz     :     0.005467
      dyz     :     0.001692
      dx2y2   :     0.002753
      dxy     :     0.012108

  4 H s       :     0.687447  s :     0.687447

  5 H s       :     0.685003  s :     0.685003

  6 O s       :     3.554542  s :     3.554542
      pz      :     1.719077  p :     5.031269
      px      :     1.727503
      py      :     1.584690
      dz2     :     0.005541  d :     0.042019
      dxz     :     0.011565
      dyz     :     0.004424
      dx2y2   :     0.001774
      dxy     :     0.018716

  7 H s       :     0.689617  s :     0.689617

  8 H s       :     0.684354  s :     0.684354



                      *****************************
                      * MAYER POPULATION ANALYSIS *
                      *****************************

  NA   - Mulliken gross atomic population
  ZA   - Total nuclear charge
  QA   - Mulliken gross atomic charge
  VA   - Mayer's total valence
  BVA  - Mayer's bonded valence
  FA   - Mayer's free valence

  ATOM       NA         ZA         QA         VA         BVA        FA
  0 O      8.8913     8.0000    -0.8913     1.5543     1.5543    -0.0000
  1 H      0.5508     1.0000     0.4492     0.7636     0.7636    -0.0000
  2 H      0.5556     1.0000     0.4444     0.7668     0.7668    -0.0000
  3 O      8.8922     8.0000    -0.8922     1.5500     1.5500     0.0000
  4 H      0.5573     1.0000     0.4427     0.7685     0.7685    -0.0000
  5 H      0.5507     1.0000     0.4493     0.7633     0.7633    -0.0000
  6 O      8.8943     8.0000    -0.8943     1.5478     1.5478    -0.0000
  7 H      0.5612     1.0000     0.4388     0.7713     0.7713    -0.0000
  8 H      0.5467     1.0000     0.4533     0.7631     0.7631     0.0000

  Mayer bond orders larger than 0.100000
B(  0-O ,  1-H ) :   0.7729 B(  0-O ,  2-H ) :   0.7757 B(  3-O ,  4-H ) :   0.7779 
B(  3-O ,  5-H ) :   0.7709 B(  6-O ,  7-H ) :   0.7806 B(  6-O ,  8-H ) :   0.7653 


-------
TIMINGS
-------

Total SCF time: 0 days 0 hours 0 min 1 sec 

Total time                  ....       1.108 sec
Sum of individual times     ....       1.014 sec  ( 91.5%)

SCF preparation             ....       0.066 sec  (  5.9%)
Fock matrix formation       ....       0.618 sec  ( 55.8%)
  Startup                   ....       0.027 sec  (  4.4% of F)
  Coulomb+Exchange Fock     ....       0.537 sec  ( 86.8% of F)
Diagonalization             ....       0.000 sec  (  0.0%)
Density matrix formation    ....       0.100 sec  (  9.0%)
Total Energy calculation    ....       0.023 sec  (  2.1%)
Population analysis         ....       0.020 sec  (  1.8%)
Orbital Transformation      ....       0.027 sec  (  2.5%)
Orbital Orthonormalization  ....       0.000 sec  (  0.0%)
DIIS solution               ....       0.093 sec  (  8.4%)
SOSCF solution              ....       0.067 sec  (  6.1%)
Finished LeanSCF after   1.1 sec

Maximum memory used throughout the entire LEANSCF-calculation: 7.6 MB

-------------------------   --------------------
FINAL SINGLE POINT ENERGY      -227.986227107240
-------------------------   --------------------

------------------------------------------------------------------------------
                         ORCA SCF GRADIENT CALCULATION
------------------------------------------------------------------------------

Nuc. rep. gradient        (SHARK) ... done (  0.0 sec)
HCore & Overlap gradient  (SHARK) ... done (  0.0 sec)
Two-electron gradient     (SHARK) ... done (  0.2 sec)

------------------
CARTESIAN GRADIENT
------------------

   1   O   :    0.096731843    0.015476553    0.079068931
   2   H   :   -0.048121568   -0.100345647   -0.022599560
   3   H   :   -0.048429004    0.085764437   -0.055804012
   4   O   :   -0.089663541    0.054591863    0.067955650
   5   H   :    0.081035091   -0.064638221    0.044707359
   6   H   :    0.008386152    0.010282087   -0.113201156
   7   O   :    0.115281586    0.021040489    0.044004148
   8   H   :   -0.048072973    0.064015849   -0.078873975
   9   H   :   -0.067147586   -0.086187411    0.034742615

Difference to translation invariance:
           :    0.0000000000    0.0000000000   -0.0000000000

Difference to rotation invariance:
           :   -0.0000002103    0.0000001831   -0.0000000969

Norm of the Cartesian gradient     ...    0.3526672470
RMS gradient                       ...    0.0678708433
MAX gradient                       ...    0.1152815865

-------
TIMINGS
-------

Total SCF gradient time     ....        0.219 sec

Densities                   ....       0.000 sec  (  0.0%)
One electron gradient       ....       0.021 sec  (  9.6%)
Two electron gradient       ....       0.197 sec  ( 90.3%)

Maximum memory used throughout the entire SCFGRAD-calculation: 13.5 MB

------------------------------------------------------------------------------
                              ORCA PROPERTY CALCULATIONS
------------------------------------------------------------------------------

GBWName                                 ... frag.gbw
Number of atoms                         ...      9
Number of basis functions               ...     54
Max core memory                         ...   1024 MB

Electric properties:
Dipole moment                           ... YES
Quadrupole moment                       ...  NO
Static polarizability (Dipole/Dipole)   ...  NO
Static polarizability (Dipole/Quad.)    ...  NO
Static polarizability (Quad./Quad.)     ...  NO
Static polarizability (Velocity)        ...  NO

Atomic electric properties:
Dipole moment                           ...  NO
Quadrupole moment                       ...  NO
Static polarizability                   ...  NO

Choice of electric origin               ... Center of mass
Position of electric origin             ...    42.964874    87.250364    74.931002

General magnetic properties:
Magnetizability                         ...  NO

EPR properties:
g-Tensor (aka g-matrix)                 ...  NO
Zero-Field splitting spin-orbit         ...  NO
Zero-field splitting spin-spin          ...  NO
Hyperfine couplings                     ...  NO (   0 nuclei)
Quadrupole couplings                    ...  NO (   0 nuclei)
Contact density                         ...  NO (   0 nuclei)

NMR properties:
Chemical shifts                         ...  NO (   0 nuclei)
Spin-rotation constants                 ...  NO (   0 nuclei)
Spin-spin couplings                     ...  NO (   0 nuclei,    0 pairs)

Choice of magnetic origin               ... GIAO
Position of magnetic origin             ...     0.000000     0.000000     0.000000

Properties with geometric perturbations:
SCF Hessian                             ...  NO
IR spectrum                             ...  NO
VCD spectrum                            ...  NO
X-ray spectroscopy properties:
SCF XES/XAS/RIXS spectra                ...  NO


-------------
DIPOLE MOMENT
-------------

Method             : SCF
Type of density    : Electron Density
Multiplicity       :   1
Irrep              :   0
Energy             :  -227.9862271072398698 Eh
Relativity type    : 
Basis              : AO
                                X                 Y                 Z
Electronic contribution:     -0.037893501      -0.007643471      -0.067486755
Nuclear contribution   :      0.882543660       0.641184046       1.368226091
                        -----------------------------------------
Total Dipole Moment    :      0.844650159       0.633540575       1.300739337
                        -----------------------------------------
Magnitude (a.u.)       :      1.675329930
Magnitude (Debye)      :      4.258350264



--------------------
Rotational spectrum 
--------------------
 
Rotational constants in cm-1:             0.163720             0.082993             0.055344 
Rotational constants in MHz :          4908.211506          2488.082187          1659.183284 

Dipole components along the rotational axes: 
x,y,z [a.u.] :     1.444320    -0.838276    -0.134028 
x,y,z [Debye]:     3.671170    -2.130728    -0.340672 

 

Dipole moment calculation done in   0.0 sec 

Maximum memory used throughout the entire PROP-calculation: 2.1 MB

--------------------------------
SUGGESTED CITATIONS FOR THIS RUN
--------------------------------

Below you find a list of papers that are relevant to this ORCA run
We neither can nor want to force you to cite these papers, but we appreciate if you do
You receive ORCA, which is the product of decades of hard work by many enthusiastic individuals, for free
The only thing we kindly ask in return is that you cite our papers,
We deeply appreciate it, if you show your appreciation for ORCA by not just citing the generic ORCA reference.

Please note that relegating all ORCA citations to the supporting information does *not* help us.
SI sections are not indexed - citations you put there will not count into any citation statistics
But we need these citations in order to attract the funding resources that allow us to do what we are doing

Therefore, if you are a happy ORCA user, please consider citing a few of the papers listed below in the main body of your paper

In addition to the list printed below, the program has created the file frag.bibtex that contains the list in bibtex format
You can import this file easily into all common literature databanks and citation aid programs


List of essential papers. We consider these as the minimum necessary citations

  1. Neese,F.
     Software update: the ORCA program system, version 5.0
     WIRES Comput. Molec. Sci., 2022 12(1)e1606
     doi.org/10.1002/wcms.1606

List of papers to cite with high priority. The work reported in these papers was absolutely
necessary for this run to complete.
Our perspective: the developers of density functionals and basis sets usually get cited in chemistry papers
Good! But without the algorithms to do something with them, the functionals or basis sets would not do anything.
Hence, in our opinion, the algorithm design and method developments papers are equally worthy of getting cited

  1. Neese,F.
     The SHARK Integral Generation and Digestion System
     J. Comp. Chem., 2022  1-16
     doi.org/10.1002/jcc.26942

List of suggested additional citations. These are papers that are important in the 'surrounding' of 
of this run, or papers that preceded the highly important papers. If you like your results we are grateful for a citation.

  1. Neese,F.
     The ORCA program system
     WIRES Comput. Molec. Sci., 2012 2(1)73-78
     doi.org/10.1002/wcms.81
  2. Neese,F.
     Software update: the ORCA program system, version 4.0
     WIRES Comput. Molec. Sci., 2018 8(1)1-6
     doi.org/10.1002/wcms.1327
  3. Neese,F.; Wennmohs,F.; Becker,U.; Riplinger,C.
     The ORCA quantum chemistry program package
     J. Chem. Phys., 2020 152 Art. No. L224108
     doi.org/10.1063/5.0004608

List of optional additional citations

  1. Neese,F.
     Approximate second-order SCF convergence for spin unrestricted wavefunctions
     Chem. Phys. Lett., 2000 325(1-3)93-98
     doi.org/10.1016/s0009-2614(00)00662-x

Timings for individual modules:

Sum of individual times          ...        2.134 sec (=   0.036 min)
Startup calculation              ...        0.429 sec (=   0.007 min)  20.1 %
SCF iterations                   ...        1.367 sec (=   0.023 min)  64.0 %
Property calculations            ...        0.052 sec (=   0.001 min)   2.5 %
SCF Gradient evaluation          ...        0.286 sec (=   0.005 min)  13.4 %
                             ****ORCA TERMINATED NORMALLY****
TOTAL RUN TIME: 0 days 0 hours 0 minutes 2 seconds 385 msec
