
                                 *****************
                                 * O   R   C   A *
                                 *****************

                                            #,                                       
                                            ###                                      
                                            ####                                     
                                            #####                                    
                                            ######                                   
                                           ########,                                 
                                     ,,################,,,,,                         
                               ,,#################################,,                 
                          ,,##########################################,,             
                       ,#########################################, ''#####,          
                    ,#############################################,,   '####,        
                  ,##################################################,,,,####,       
                ,###########''''           ''''###############################       
              ,#####''   ,,,,##########,,,,          '''####'''          '####       
            ,##' ,,,,###########################,,,                        '##       
           ' ,,###''''                  '''############,,,                           
         ,,##''                                '''############,,,,        ,,,,,,###''
      ,#''                                            '''#######################'''  
     '                                                          ''''####''''         
             ,#######,   #######,   ,#######,      ##                                
            ,#'     '#,  ##    ##  ,#'     '#,    #''#        ,####,   ,####,        
            ##       ##  ##   ,#'  ##            #'  '#       #'       #'  '#        
            ##       ##  #######   ##           ,######,      #####,   #    #        
            '#,     ,#'  ##    ##  '#,     ,#' ,#      #,     #,   #   #,  ,#        
             '#######'   ##     ##  '#######'  #'      '#     '####' # '####'        



                #########################################################
                #                        -***-                          #
                #          Department of theory and spectroscopy        #
                #                                                       #
                #                      Frank Neese                      #
                #                                                       #
                #     Directorship, Architecture, Infrastructure        #
                #                    SHARK, DRIVERS                     #
                #        Core code/Algorithms in most modules           #
                #                                                       #
                #        Max Planck Institute fuer Kohlenforschung      #
                #                Kaiser Wilhelm Platz 1                 #
                #                 D-45470 Muelheim/Ruhr                 #
                #                      Germany                          #
                #                                                       #
                #                  All rights reserved                  #
                #                        -***-                          #
                #########################################################


                         Program Version 6.0.1  -  RELEASE   -


 With contributions from (in alphabetic order):
[Max-Planck-Institut fuer Kohlenforschung]                               
  Daniel Aravena         : Magnetic Suceptibility                        
  Michael Atanasov       : Ab Initio Ligand Field Theory (pilot matlab implementation)
  Alexander A. Auer      : GIAO ZORA, VPT2 properties, NMR spectrum      
  Ute Becker             : All parallelization in ORCA, NUMFREQ, NUMCALC 
  Giovanni Bistoni       : ED, misc. LED, open-shell LED, HFLD           
  Martin Brehm           : Molecular dynamics                            
  Dmytro Bykov           : pre 5.0 version of the SCF Hessian            
  Marcos Casanova-Páez   : Triplet and SCS-CIS(D). UHF-(DLPNO)-IP/EA/STEOM-CCSD. UHF-CVS-IP/STEOM-CCSD   
  Vijay G. Chilkuri      : MRCI spin determinant printing, contributions to CSF-ICE 
  Pauline Colinet        : FMM embedding                                 
  Dipayan Datta          : RHF DLPNO-CCSD density                        
  Achintya Kumar Dutta   : EOM-CC, STEOM-CC                              
  Nicolas Foglia         : Exact transition moments, OPA infrastructure, MCD improvements    
  Dmitry Ganyushin       : Spin-Orbit,Spin-Spin,Magnetic field MRCI      
  Miquel Garcia-Rates    : C-PCM and meta-GGA Hessian, CCSD/C-PCM, Gaussian charge scheme 
  Tiago L. C. Gouveia    : GS-ROHF, GS-ROCIS                             
  Yang Guo               : DLPNO-NEVPT2, F12-NEVPT2, CIM, IAO-localization        
  Andreas Hansen         : Spin unrestricted coupled pair/coupled cluster methods 
  Ingolf Harden          : AUTO-CI MPn and infrastructure                
  Benjamin Helmich-Paris : MC-RPA, TRAH-(SCF,CASSCF), AVAS, COSX integrals, SCF dyn. polar. 
  Lee Huntington         : MR-EOM, pCC                                   
  Robert Izsak           : Overlap fitted RIJCOSX, COSX-SCS-MP3, EOM     
  Riya Kayal             : Wick's Theorem for AUTO-CI, AUTO-CI UHF-CCSDT 
  Emily Kempfer          : AUTO-CI, RHF CISDT and CCSDT                  
  Christian Kollmar      : KDIIS, OOCD, Brueckner-CCSD(T), CCSD density, CASPT2, CASPT2-K, improved NEVPT2 
  Axel Koslowski         : Symmetry handling                             
  Simone Kossmann        : meta-GGA functionals, TD-DFT gradient, OOMP2, (MP2 Hessian; deprecated post 5.0) 
  Lucas Lang             : DCDCAS                                        
  Marvin Lechner         : AUTO-CI (C++ implementation), FIC-MRCC        
  Spencer Leger          : CASSCF response                               
  Dagmar Lenk            : GEPOL surface, SMD, ORCA-2-JSON               
  Dimitrios Liakos       : Extrapolation schemes; Compound Job, initial MDCI parallelization 
  Dimitrios Manganas     : Further ROCIS development; embedding schemes. LFT, Crystal Embedding 
  Dimitrios Pantazis     : SARC Basis sets                               
  Anastasios Papadopoulos: AUTO-CI, single reference methods and gradients 
  Taras Petrenko         : pre 6.0 DFT Hessian and TD-DFT gradient, (ASA, deprecated), ECA, 1-Electron XAS/XES, NRVS 
  Peter Pinski           : DLPNO-MP2, DLPNO-MP2 Gradient                 
  Christoph Reimann      : Effective Core Potentials                     
  Marius Retegan         : Local ZFS, SOC                                
  Christoph Riplinger    : Optimizer, TS searches, QM/MM, DLPNO-CCSD(T), (RO)-DLPNO pert. Triples 
  Michael Roemelt        : Original ROCIS implementation                 
  Masaaki Saitow         : Open-shell DLPNO-CCSD energy and density      
  Barbara Sandhoefer     : DKH picture change effects                    
  Kantharuban Sivalingam : CASSCF convergence/infrastructure, NEVPT2 and variants, FIC-MRCI 
  Bernardo de Souza      : ESD, SOC TD-DFT                               
  Georgi L. Stoychev     : AutoAux, RI-MP2 NMR, DLPNO-MP2 response, X2C  
  Van Anh Tran           : RI-MP2 g-tensors                              
  Willem Van den Heuvel  : Paramagnetic NMR                              
  Zikuan Wang            : NOTCH, Electric field optimization            
  Frank Wennmohs         : Technical directorship and infrastructure     
  Hang Xu                : AUTO-CI-Response properties                   
                                                                         
[FACCTs GmbH]                                                            
  Markus Bursch, Miquel Garcia-Rates, Christoph Riplinger, Bernardo de Souza, Georgi L. Stoychev 
                                                                 
  APM, Basis sets (HGBS, AHGBS, def-TZVP (Ac-Lr), def2-XVPD (La-Lu)), CI-OPT, improved COSX, DLPNO-Multilevel,           
  DOCKER, DRACO, updates on ESD, GOAT, IRC, LR-CPCM, MBIS, meta-GGA TD-DFT gradient, ML-optimized integration grids, 
  MM, NACMEs, nearIR, NEB, NEB-TS, NL-DFT gradient (VV10), 2- and 3-layer-ONIOM, interface openCOSMO-RS, QMMM,   
  Crystal-QMMM, SF, symmetry and pop. for TD-DFT, r2SCAN hybrids, SOLVATOR                                   
                                                                         
[Other institutions]                                                     
  V. Asgeirsson          : NEB                                           
  Christoph Bannwarth    : sTDA-DFT, sTD-DFT, PBEh-3c, B97-3c, D3        
  Sebastian Ehlert       : rSCAN, r2SCAN, r2SCAN-3c, D4, dhf basis sets  
  Marvin Friede          : D4 for Fr, Ra, Ac-Lr                          
  Lars Goerigk           : TD-DFT with DH, B97 family of functionals     
  Stefan Grimme          : VdW corrections, initial TS optimization, DFT functionals, gCP, sTDA/sTD-DF 
  Waldemar Hujo          : DFT-NL                                        
  H. Jonsson             : NEB                                           
  Holger Kruse           : gCP                                           
  Marcel Mueller         : wB97X-3c, vDZP basis set                      
  Hagen Neugebauer       : wr2SCAN                                       
  Tobias Risthaus        : range-separated hybrid DFT                    
  Lukas Wittmann         : regularized MP2, r2SCAN double-hybrids, wr2SCAN        
                                                                         
We gratefully acknowledge several colleagues who have allowed us to      
interface, adapt or use parts of their codes:                            
  Ed Valeev, F. Pavosevic, A. Kumar             : LibInt (2-el integral package), F12 methods 
  Garnet Chan, S. Sharma, J. Yang, R. Olivares  : DMRG                   
  Ulf Ekstrom                                   : XCFun DFT Library      
  Mihaly Kallay                                 : mrcc  (arbitrary order and MRCC methods)
  Frank Weinhold                                : gennbo (NPA and NBO analysis)           
  Simon Mueller                                 : openCOSMO-RS                            
  Christopher J. Cramer and Donald G. Truhlar   : smd solvation model                     
  S Lehtola, MJT Oliveira, MAL Marques          : LibXC Library                           
  Liviu Ungur et al                             : ANISO software                          


 Your calculation uses the libint2 library for the computation of 2-el integrals
 For citations please refer to: http://libint.valeyev.net

 Your ORCA version has been built with support for libXC version: 6.2.2
 For citations please refer to: https://libxc.gitlab.io

 This ORCA versions uses:
   CBLAS   interface :  Fast vector & matrix operations
   LAPACKE interface :  Fast linear algebra routines
   SCALAPACK package :  Parallel linear algebra routines
   Shared memory     :  Shared parallel matrices
   BLAS/LAPACK       :  OpenBLAS 0.3.27  USE64BITINT DYNAMIC_ARCH NO_AFFINITY SkylakeX SINGLE_THREADED
        Core in use  :  SkylakeX
   Copyright (c) 2011-2014, The OpenBLAS Project


================================================================================

----- Orbital basis set information -----
Your calculation utilizes the basis: 6-31G*
   H-He, Li-Ne : W. J. Hehre, R. Ditchfield and J.A. Pople, J. Chem. Phys. 56, 2257 (1972).
                 Note: He and Ne are unpublished basis sets taken from the Gaussian program.
                 Note: Li and B from J. D. Dill and J. A. Pople, J. Chem. Phys. 62, 2921 (1975).
   Na - Ar     : M. M. Francl, W. J. Pietro, W. J. Hehre, J. S. Binkley, M. S. Gordon, 
                 D. J. DeFrees and J. A. Pople, J. Chem. Phys. 77, 3654 (1982).
   K - Zn      : V. A. Rassolov, J. A. Pople, M. A. Ratner, and T. L. Windus, J. Chem. Phys. 109, 1223 (1998).

================================================================================
                                        WARNINGS
                       Please study these warnings very carefully!
================================================================================


================================================================================
                                       INPUT FILE
================================================================================
NAME = frag.inp
|  1> !HF 6-31G* EnGrad
|  2> %pal nprocs 1 end
|  3> *xyz 0 1
|  4> O 24.10596000 46.93173000 41.50917000
|  5> H 24.52341000 46.31399000 41.96223000
|  6> H 24.52212000 47.66562000 41.73132000
|  7> O 20.35232000 49.63574000 40.01023000
|  8> H 20.79050000 48.92392000 40.26012000
|  9> H 19.54326000 49.49202000 40.30334000
| 10> O 19.10373000 45.58535000 40.48424000
| 11> H 18.38270000 45.25544000 40.12036000
| 12> H 18.82331000 45.89664000 41.24949000
| 13> *
| 14> 
| 15>                          ****END OF INPUT****
================================================================================

                     *******************************
                     * Energy+Gradient Calculation *
                     *******************************

---------------------------------
CARTESIAN COORDINATES (ANGSTROEM)
---------------------------------
  O     24.105960   46.931730   41.509170
  H     24.523410   46.313990   41.962230
  H     24.522120   47.665620   41.731320
  O     20.352320   49.635740   40.010230
  H     20.790500   48.923920   40.260120
  H     19.543260   49.492020   40.303340
  O     19.103730   45.585350   40.484240
  H     18.382700   45.255440   40.120360
  H     18.823310   45.896640   41.249490

----------------------------
CARTESIAN COORDINATES (A.U.)
----------------------------
  NO LB      ZA    FRAG     MASS         X           Y           Z
   0 O     8.0000    0    15.999   45.553663   88.688117   78.440963
   1 H     1.0000    0     1.008   46.342529   87.520757   79.297123
   2 H     1.0000    0     1.008   46.340091   90.074968   78.860766
   3 O     8.0000    0    15.999   38.460311   93.797955   75.608377
   4 H     1.0000    0     1.008   39.288351   92.452810   76.080601
   5 H     1.0000    0     1.008   36.931409   93.526364   76.162275
   6 O     8.0000    0    15.999   36.100818   86.143827   76.504126
   7 H     1.0000    0     1.008   34.738269   85.520388   75.816493
   8 H     1.0000    0     1.008   35.570901   86.732080   77.950239

--------------------------------
INTERNAL COORDINATES (ANGSTROEM)
--------------------------------
 O      0   0   0     0.000000000000     0.00000000     0.00000000
 H      1   0   0     0.872427976225     0.00000000     0.00000000
 H      1   2   0     0.872430111929   103.60043743     0.00000000
 O      1   2   3     4.862952236379   157.38780147   238.36472283
 H      4   1   2     0.872430190273    21.62011441   320.05077009
 H      4   1   2     0.872437386922   121.37625074   357.75029485
 O      5   4   1     3.747195278098   121.19674076   179.37690942
 H      7   5   4     0.872429666735   133.15649011    21.56573496
 H      7   5   4     0.872435901944    83.06466082   279.40571122

---------------------------
INTERNAL COORDINATES (A.U.)
---------------------------
 O      0   0   0     0.000000000000     0.00000000     0.00000000
 H      1   0   0     1.648649946636     0.00000000     0.00000000
 H      1   2   0     1.648653982532   103.60043743     0.00000000
 O      1   2   3     9.189647929096   157.38780147   238.36472283
 H      4   1   2     1.648654130581    21.62011441   320.05077009
 H      4   1   2     1.648667730277   121.37625074   357.75029485
 O      5   4   1     7.081172845928   121.19674076   179.37690942
 H      7   5   4     1.648653141238   133.15649011    21.56573496
 H      7   5   4     1.648664924074    83.06466082   279.40571122

---------------------
BASIS SET INFORMATION
---------------------
There are 2 groups of distinct atoms

 Group   1 Type O   : 10s4p1d contracted to 3s2p1d pattern {631/31/1}
 Group   2 Type H   : 4s contracted to 2s pattern {31}

Atom   0O    basis set group =>   1
Atom   1H    basis set group =>   2
Atom   2H    basis set group =>   2
Atom   3O    basis set group =>   1
Atom   4H    basis set group =>   2
Atom   5H    basis set group =>   2
Atom   6O    basis set group =>   1
Atom   7H    basis set group =>   2
Atom   8H    basis set group =>   2
------------------------------------------------------------------------------
                             ORCA STARTUP CALCULATIONS
------------------------------------------------------------------------------
------------------------------------------------------------------------------
                   ___                                                        
                  /   \      - P O W E R E D   B Y -                         
                 /     \                                                     
                 |  |  |   _    _      __       _____    __    __             
                 |  |  |  | |  | |    /  \     |  _  \  |  |  /  |          
                  \  \/   | |  | |   /    \    | | | |  |  | /  /          
                 / \  \   | |__| |  /  /\  \   | |_| |  |  |/  /          
                |  |  |   |  __  | /  /__\  \  |    /   |      \           
                |  |  |   | |  | | |   __   |  |    \   |  |\   \          
                \     /   | |  | | |  |  |  |  | |\  \  |  | \   \       
                 \___/    |_|  |_| |__|  |__|  |_| \__\ |__|  \__/        
                                                                              
                      - O R C A' S   B I G   F R I E N D -                    
                                      &                                       
                       - I N T E G R A L  F E E D E R -                       
                                                                              
 v1 FN, 2020, v2 2021, v3 2022-2024                                           
------------------------------------------------------------------------------


----------------------
SHARK INTEGRAL PACKAGE
----------------------

Number of atoms                             ...      9
Number of basis functions                   ...     54
Number of shells                            ...     30
Maximum angular momentum                    ...      2
Integral batch strategy                     ... SHARK/LIBINT Hybrid
RI-J (if used) integral strategy            ... SPLIT-RIJ (Revised 2003 algorithm where possible)
Printlevel                                  ...      1
Contraction scheme used                     ... SEGMENTED contraction
Prescreening option                         ... SCHWARTZ
   Thresh                                   ... 2.500e-11
   Tcut                                     ... 2.500e-12
   Tpresel                                  ... 2.500e-12 
Coulomb Range Separation                    ... NOT USED
Exchange Range Separation                   ... NOT USED
Multipole approximations                    ... NOT USED
Finite Nucleus Model                        ... NOT USED
CABS basis                                  ... NOT available
Auxiliary Coulomb fitting basis             ... NOT available
Auxiliary J/K fitting basis                 ... NOT available
Auxiliary Correlation fitting basis         ... NOT available
Auxiliary 'external' fitting basis          ... NOT available

Checking pre-screening integrals            ... done (  0.0 sec) Dimension = 30
Check shell pair data                       ... done (  0.0 sec)
Shell pair information
Shell pair cut-off parameter TPreSel        ...   2.5e-12
Total number of shell pairs                 ...       465
Shell pairs after pre-screening             ...       378
Total number of primitive shell pairs       ...      2496
Primitive shell pairs kept                  ...      1379
          la=0 lb=0:    190 shell pairs
          la=1 lb=0:    106 shell pairs
          la=1 lb=1:     18 shell pairs
          la=2 lb=0:     46 shell pairs
          la=2 lb=1:     14 shell pairs
          la=2 lb=2:      4 shell pairs

Calculating one electron integrals          ... done (  0.0 sec)
Calculating Nuclear repulsion               ... done (  0.0 sec) ENN=     63.331557144470 Eh

Diagonalization of the overlap matrix:
Smallest eigenvalue                        ... 4.850e-02
Time for diagonalization                   ...    0.000 sec
Threshold for overlap eigenvalues          ... 1.000e-07
Number of eigenvalues below threshold      ... 0
Time for construction of square roots      ...    0.002 sec
Total time needed                          ...    0.005 sec

-------------------
DFT GRID GENERATION
-------------------

General Integration Accuracy     IntAcc      ... 4.388
Radial Grid Type                 RadialGrid  ... OptM3 with GC (2021)
Angular Grid (max. ang.)         AngularGrid ... 4 (Lebedev-302)
Angular grid pruning method      GridPruning ... 4 (adaptive)
Weight generation scheme         WeightScheme... mBecke (2022)
Basis function cutoff            BFCut       ... 1.0000e-11
Integration weight cutoff        WCut        ... 1.0000e-14
Partially contracted basis set               ... off
Rotationally invariant grid construction     ... off
Angular grids for H and He will be reduced by one unit

Total number of grid points                  ...    38215
Total number of batches                      ...      601
Average number of points per batch           ...       63
Average number of grid points per atom       ...     4246
Initializing property integral containers    ... done (  0.0 sec)

SHARK setup successfully completed in   0.3 seconds

Maximum memory used throughout the entire STARTUP-calculation: 13.1 MB
-------------------------------------------------------------------------------
                                 ORCA GUESS
                   Start orbitals & Density for SCF / CASSCF
-------------------------------------------------------------------------------

------------
SCF SETTINGS
------------
Hamiltonian:
 Ab initio Hamiltonian  Method          .... Hartree-Fock(GTOs)


General Settings:
 Integral files         IntName         .... frag
 Hartree-Fock type      HFTyp           .... RHF
 Total Charge           Charge          ....    0
 Multiplicity           Mult            ....    1
 Number of Electrons    NEL             ....   30
 Basis Dimension        Dim             ....   54
 Nuclear Repulsion      ENuc            ....     63.3315571445 Eh

Convergence Acceleration:
 AO-DIIS                CNVDIIS         .... on
   Start iteration      DIISMaxIt       ....    12
   Startup error        DIISStart       ....  0.200000
   # of expansion vecs  DIISMaxEq       ....     5
   Bias factor          DIISBfac        ....   1.050
   Max. coefficient     DIISMaxC        ....  10.000
 MO-DIIS                CNVKDIIS        .... off
 Trust-Rad. Augm. Hess. CNVTRAH         .... auto
   Auto Start mean grad. ratio tolernc. ....  1.125000
   Auto Start start iteration           ....    50
   Auto Start num. interpolation iter.  ....    10
   Max. Number of Micro iterations      ....    24
   Max. Number of Macro iterations      .... Maxiter - #DIIS iter
   Number of Davidson start vectors     ....     2
   Converg. threshold    (grad. norm)   ....   1.000e-05
   Grad. Scal. Fac. for Micro threshold ....   0.100
   Minimum threshold for Micro iter.    ....   1.000e-02
   NR start threshold (gradient norm)   ....   1.000e-04
   Initial trust radius                 ....   0.400
   Minimum AH scaling param. (alpha)    ....   1.000
   Maximum AH scaling param. (alpha)    .... 1000.000
   Quad. conv. algorithm                .... NR
   White noise on init. David. guess    .... on
   Maximum white noise                  ....   0.010
   Pseudo random numbers                .... off
   Inactive MOs                         .... canonical
   Orbital update algorithm             .... Taylor
   Preconditioner                       .... Diag
   Full preconditioner red. dimension   ....   250
 SOSCF                  CNVSOSCF        .... on
   Start iteration      SOSCFMaxIt      ....   150
   Startup grad/error   SOSCFStart      ....  0.003300
   Hessian update       SOSCFHessUp     .... L-BFGS
 Level Shifting         CNVShift        .... on
   Level shift para.    LevelShift      ....    0.2500
   Turn off err/grad.   ShiftErr        ....    0.0010
 Zerner damping         CNVZerner       .... off
 Static damping         CNVDamp         .... on
   Fraction old density DampFac         ....    0.7000
   Max. Damping (<1)    DampMax         ....    0.9800
   Min. Damping (>=0)   DampMin         ....    0.0000
   Turn off err/grad.   DampErr         ....    0.1000

SCF Procedure:
 Maximum # iterations   MaxIter         ....   125
 SCF integral mode      SCFMode         .... Direct
   Integral package                     .... SHARK and LIBINT hybrid scheme
 Reset frequency        DirectResetFreq ....    20
 Integral Threshold     Thresh          ....  2.500e-11 Eh
 Primitive CutOff       TCut            ....  2.500e-12 Eh

Convergence Tolerance:
 Convergence Check Mode ConvCheckMode   .... Total+1el-Energy
 Convergence forced     ConvForced      .... 0
 Energy Change          TolE            ....  1.000e-08 Eh
 1-El. energy change                    ....  1.000e-05 Eh
 Orbital Gradient       TolG            ....  1.000e-05
 Orbital Rotation angle TolX            ....  1.000e-05
 DIIS Error             TolErr          ....  5.000e-07

------------------------------
INITIAL GUESS: MODEL POTENTIAL
------------------------------
Loading Hartree-Fock densities                     ... done
Calculating cut-offs                               ... done
Initializing the effective Hamiltonian             ... done
Setting up the integral package (SHARK)            ... done
Starting the Coulomb interaction                   ... done (   0.0 sec)
Making the grid                                    ... done (   0.0 sec)
Mapping shells                                     ... done
Starting the XC term evaluation                    ... done (   0.0 sec)
Transforming the Hamiltonian                       ... done (   0.0 sec)
Diagonalizing the Hamiltonian                      ... done (   0.0 sec)
Back transforming the eigenvectors                 ... done (   0.0 sec)
Now organizing SCF variables                       ... done
                      ------------------
                      INITIAL GUESS DONE (   0.1 sec)
                      ------------------
             **** ENERGY FILE WAS UPDATED (frag.en.tmp) ****
Finished Guess after   0.1 sec
Maximum memory used throughout the entire GUESS-calculation: 5.6 MB

-------------------------------------------------------------------------------------------
                                      ORCA LEAN-SCF
                              memory conserving SCF solver
-------------------------------------------------------------------------------------------

----------------------------------------D-I-I-S--------------------------------------------
Iteration    Energy (Eh)           Delta-E    RMSDP     MaxDP     DIISErr   Damp  Time(sec)
-------------------------------------------------------------------------------------------
               ***  Starting incremental Fock matrix formation  ***
    1    -227.6705632056122397     0.00e+00  7.25e-03  7.29e-02  3.31e-01  0.700   0.1
    2    -227.7929648138176333    -1.22e-01  4.93e-03  4.99e-02  2.02e-01  0.700   0.1
                               ***Turning on AO-DIIS***
    3    -227.8591026469903511    -6.61e-02  1.93e-03  2.16e-02  1.13e-01  0.700   0.1
    4    -227.8990458525552469    -3.99e-02  1.17e-03  1.39e-02  7.68e-02  0.700   0.1
    5    -227.9254447098428216    -2.64e-02  2.70e-03  3.30e-02  5.47e-02  0.000   0.1
                              *** Initializing SOSCF ***
---------------------------------------S-O-S-C-F--------------------------------------
Iteration    Energy (Eh)           Delta-E    RMSDP     MaxDP     MaxGrad    Time(sec)
--------------------------------------------------------------------------------------
    6    -227.9843099731974405    -5.89e-02  1.86e-04  1.81e-03  3.17e-03     0.1
               *** Restarting incremental Fock matrix formation ***
    7    -227.9843566265971333    -4.67e-05  1.25e-04  8.64e-04  6.87e-04     0.1
    8    -227.9843651965109359    -8.57e-06  8.65e-05  6.16e-04  3.63e-04     0.1
    9    -227.9843667950699739    -1.60e-06  1.14e-05  1.01e-04  1.05e-04     0.1
   10    -227.9843668720851895    -7.70e-08  1.45e-06  1.36e-05  1.00e-05     0.1
   11    -227.9843668738336930    -1.75e-09  7.75e-07  7.55e-06  3.29e-06     0.1
                 **** Energy Check signals convergence ****

               *****************************************************
               *                     SUCCESS                       *
               *           SCF CONVERGED AFTER  11 CYCLES          *
               *****************************************************

             **** ENERGY FILE WAS UPDATED (frag.en.tmp) ****

----------------
TOTAL SCF ENERGY
----------------

Total Energy       :       -227.98436687383369 Eh           -6203.77002 eV

Components:
Nuclear Repulsion  :         63.33155714446954 Eh            1723.33928 eV
Electronic Energy  :       -291.31592401830324 Eh           -7927.10930 eV
One Electron Energy:       -440.06615584505323 Eh          -11974.80889 eV
Two Electron Energy:        148.75023182675000 Eh            4047.69959 eV

Virial components:
Potential Energy   :       -457.12982334050770 Eh          -12439.13489 eV
Kinetic Energy     :        229.14545646667401 Eh            6235.36487 eV
Virial Ratio       :          1.99493295825829

---------------
SCF CONVERGENCE
---------------

  Last Energy change         ...    1.7485e-09  Tolerance :   1.0000e-08
  Last MAX-Density change    ...    7.5509e-06  Tolerance :   1.0000e-07
  Last RMS-Density change    ...    7.7496e-07  Tolerance :   5.0000e-09
  Last DIIS Error            ...    3.1662e-03  Tolerance :   5.0000e-07
  Last Orbital Gradient      ...    3.2883e-06  Tolerance :   1.0000e-05
  Last Orbital Rotation      ...    3.6216e-06  Tolerance :   1.0000e-05


----------------
ORBITAL ENERGIES
----------------

  NO   OCC          E(Eh)            E(eV) 
   0   2.0000     -20.542472      -558.9891 
   1   2.0000     -20.536899      -558.8374 
   2   2.0000     -20.524383      -558.4969 
   3   2.0000      -1.396071       -37.9890 
   4   2.0000      -1.390509       -37.8377 
   5   2.0000      -1.377887       -37.4942 
   6   2.0000      -0.758699       -20.6452 
   7   2.0000      -0.753120       -20.4934 
   8   2.0000      -0.740587       -20.1524 
   9   2.0000      -0.592885       -16.1332 
  10   2.0000      -0.587806       -15.9950 
  11   2.0000      -0.575905       -15.6712 
  12   2.0000      -0.509618       -13.8674 
  13   2.0000      -0.504139       -13.7183 
  14   2.0000      -0.491867       -13.3844 
  15   0.0000       0.215728         5.8703 
  16   0.0000       0.232344         6.3224 
  17   0.0000       0.257421         7.0048 
  18   0.0000       0.323071         8.7912 
  19   0.0000       0.325998         8.8709 
  20   0.0000       0.343280         9.3411 
  21   0.0000       1.051220        28.6052 
  22   0.0000       1.056285        28.7430 
  23   0.0000       1.068413        29.0730 
  24   0.0000       1.161715        31.6119 
  25   0.0000       1.168183        31.7879 
*Only the first 10 virtual orbitals were printed.

                    ********************************
                    * MULLIKEN POPULATION ANALYSIS *
                    ********************************

-----------------------
MULLIKEN ATOMIC CHARGES
-----------------------
   0 O :   -0.888022
   1 H :    0.444050
   2 H :    0.444085
   3 O :   -0.892711
   4 H :    0.452017
   5 H :    0.440131
   6 O :   -0.886489
   7 H :    0.445149
   8 H :    0.441790
Sum of atomic charges:   -0.0000000

--------------------------------
MULLIKEN REDUCED ORBITAL CHARGES
--------------------------------
  0 O s       :     3.846041  s :     3.846041
      pz      :     1.849671  p :     5.008460
      px      :     1.800970
      py      :     1.357819
      dz2     :     0.003222  d :     0.033521
      dxz     :     0.007089
      dyz     :     0.008569
      dx2y2   :     0.000853
      dxy     :     0.013788

  1 H s       :     0.555950  s :     0.555950

  2 H s       :     0.555915  s :     0.555915

  3 O s       :     3.845493  s :     3.845493
      pz      :     1.913293  p :     5.013904
      px      :     1.416210
      py      :     1.684401
      dz2     :     0.003520  d :     0.033314
      dxz     :     0.006342
      dyz     :     0.005666
      dx2y2   :     0.009791
      dxy     :     0.007995

  4 H s       :     0.547983  s :     0.547983

  5 H s       :     0.559869  s :     0.559869

  6 O s       :     3.846446  s :     3.846446
      pz      :     1.506181  p :     5.006414
      px      :     1.646681
      py      :     1.853552
      dz2     :     0.006791  d :     0.033630
      dxz     :     0.010881
      dyz     :     0.002594
      dx2y2   :     0.006467
      dxy     :     0.006897

  7 H s       :     0.554851  s :     0.554851

  8 H s       :     0.558210  s :     0.558210



                     *******************************
                     * LOEWDIN POPULATION ANALYSIS *
                     *******************************

----------------------
LOEWDIN ATOMIC CHARGES
----------------------
   0 O :   -0.626267
   1 H :    0.313217
   2 H :    0.313122
   3 O :   -0.628623
   4 H :    0.317326
   5 H :    0.310905
   6 O :   -0.625328
   7 H :    0.313875
   8 H :    0.311773

-------------------------------
LOEWDIN REDUCED ORBITAL CHARGES
-------------------------------
  0 O s       :     3.555786  s :     3.555786
      pz      :     1.855956  p :     5.028145
      px      :     1.810400
      py      :     1.361789
      dz2     :     0.003830  d :     0.042336
      dxz     :     0.007514
      dyz     :     0.011285
      dx2y2   :     0.001688
      dxy     :     0.018018

  1 H s       :     0.686783  s :     0.686783

  2 H s       :     0.686878  s :     0.686878

  3 O s       :     3.555116  s :     3.555116
      pz      :     1.917169  p :     5.031511
      px      :     1.421575
      py      :     1.692767
      dz2     :     0.004171  d :     0.041995
      dxz     :     0.008016
      dyz     :     0.006047
      dx2y2   :     0.013038
      dxy     :     0.010724

  4 H s       :     0.682674  s :     0.682674

  5 H s       :     0.689095  s :     0.689095

  6 O s       :     3.556066  s :     3.556066
      pz      :     1.511790  p :     5.026790
      px      :     1.660546
      py      :     1.854453
      dz2     :     0.009162  d :     0.042473
      dxz     :     0.013960
      dyz     :     0.003714
      dx2y2   :     0.007182
      dxy     :     0.008455

  7 H s       :     0.686125  s :     0.686125

  8 H s       :     0.688227  s :     0.688227



                      *****************************
                      * MAYER POPULATION ANALYSIS *
                      *****************************

  NA   - Mulliken gross atomic population
  ZA   - Total nuclear charge
  QA   - Mulliken gross atomic charge
  VA   - Mayer's total valence
  BVA  - Mayer's bonded valence
  FA   - Mayer's free valence

  ATOM       NA         ZA         QA         VA         BVA        FA
  0 O      8.8880     8.0000    -0.8880     1.5535     1.5535     0.0000
  1 H      0.5559     1.0000     0.4441     0.7671     0.7671     0.0000
  2 H      0.5559     1.0000     0.4441     0.7669     0.7669     0.0000
  3 O      8.8927     8.0000    -0.8927     1.5499     1.5499    -0.0000
  4 H      0.5480     1.0000     0.4520     0.7619     0.7619    -0.0000
  5 H      0.5599     1.0000     0.4401     0.7702     0.7702    -0.0000
  6 O      8.8865     8.0000    -0.8865     1.5549     1.5549     0.0000
  7 H      0.5549     1.0000     0.4451     0.7662     0.7662     0.0000
  8 H      0.5582     1.0000     0.4418     0.7685     0.7685     0.0000

  Mayer bond orders larger than 0.100000
B(  0-O ,  1-H ) :   0.7767 B(  0-O ,  2-H ) :   0.7765 B(  3-O ,  4-H ) :   0.7705 
B(  3-O ,  5-H ) :   0.7795 B(  6-O ,  7-H ) :   0.7758 B(  6-O ,  8-H ) :   0.7781 


-------
TIMINGS
-------

Total SCF time: 0 days 0 hours 0 min 0 sec 

Total time                  ....       0.905 sec
Sum of individual times     ....       0.830 sec  ( 91.8%)

SCF preparation             ....       0.053 sec  (  5.8%)
Fock matrix formation       ....       0.496 sec  ( 54.8%)
  Startup                   ....       0.023 sec  (  4.6% of F)
  Coulomb+Exchange Fock     ....       0.360 sec  ( 72.6% of F)
Diagonalization             ....       0.000 sec  (  0.0%)
Density matrix formation    ....       0.086 sec  (  9.5%)
Total Energy calculation    ....       0.018 sec  (  2.0%)
Population analysis         ....       0.016 sec  (  1.7%)
Orbital Transformation      ....       0.014 sec  (  1.5%)
Orbital Orthonormalization  ....       0.000 sec  (  0.0%)
DIIS solution               ....       0.088 sec  (  9.8%)
SOSCF solution              ....       0.059 sec  (  6.5%)
Finished LeanSCF after   0.9 sec

Maximum memory used throughout the entire LEANSCF-calculation: 7.6 MB

-------------------------   --------------------
FINAL SINGLE POINT ENERGY      -227.984366873834
-------------------------   --------------------

------------------------------------------------------------------------------
                         ORCA SCF GRADIENT CALCULATION
------------------------------------------------------------------------------

Nuc. rep. gradient        (SHARK) ... done (  0.0 sec)
HCore & Overlap gradient  (SHARK) ... done (  0.0 sec)
Two-electron gradient     (SHARK) ... done (  0.1 sec)

------------------
CARTESIAN GRADIENT
------------------

   1   O   :    0.096606655    0.012876899    0.077422378
   2   H   :   -0.048092388    0.086632088   -0.054638144
   3   H   :   -0.048265109   -0.099916782   -0.022812528
   4   O   :   -0.042200223   -0.100683034    0.061655600
   5   H   :   -0.064971921    0.090387335   -0.027571787
   6   H   :    0.106715746    0.011144218   -0.033686650
   7   O   :   -0.115339889   -0.003893126    0.045948804
   8   H   :    0.088066218    0.045478557    0.054980135
   9   H   :    0.027480911   -0.042026155   -0.101297808

Difference to translation invariance:
           :   -0.0000000000    0.0000000000   -0.0000000000

Difference to rotation invariance:
           :   -0.0000000369   -0.0000000009    0.0000000036

Norm of the Cartesian gradient     ...    0.3517195809
RMS gradient                       ...    0.0676884649
MAX gradient                       ...    0.1153398890

-------
TIMINGS
-------

Total SCF gradient time     ....        0.156 sec

Densities                   ....       0.000 sec  (  0.0%)
One electron gradient       ....       0.017 sec  ( 10.8%)
Two electron gradient       ....       0.139 sec  ( 89.1%)

Maximum memory used throughout the entire SCFGRAD-calculation: 13.4 MB

------------------------------------------------------------------------------
                              ORCA PROPERTY CALCULATIONS
------------------------------------------------------------------------------

GBWName                                 ... frag.gbw
Number of atoms                         ...      9
Number of basis functions               ...     54
Max core memory                         ...   1024 MB

Electric properties:
Dipole moment                           ... YES
Quadrupole moment                       ...  NO
Static polarizability (Dipole/Dipole)   ...  NO
Static polarizability (Dipole/Quad.)    ...  NO
Static polarizability (Quad./Quad.)     ...  NO
Static polarizability (Velocity)        ...  NO

Atomic electric properties:
Dipole moment                           ...  NO
Quadrupole moment                       ...  NO
Static polarizability                   ...  NO

Choice of electric origin               ... Center of mass
Position of electric origin             ...    40.019276    89.516583    76.908239

General magnetic properties:
Magnetizability                         ...  NO

EPR properties:
g-Tensor (aka g-matrix)                 ...  NO
Zero-Field splitting spin-orbit         ...  NO
Zero-field splitting spin-spin          ...  NO
Hyperfine couplings                     ...  NO (   0 nuclei)
Quadrupole couplings                    ...  NO (   0 nuclei)
Contact density                         ...  NO (   0 nuclei)

NMR properties:
Chemical shifts                         ...  NO (   0 nuclei)
Spin-rotation constants                 ...  NO (   0 nuclei)
Spin-spin couplings                     ...  NO (   0 nuclei,    0 pairs)

Choice of magnetic origin               ... GIAO
Position of magnetic origin             ...     0.000000     0.000000     0.000000

Properties with geometric perturbations:
SCF Hessian                             ...  NO
IR spectrum                             ...  NO
VCD spectrum                            ...  NO
X-ray spectroscopy properties:
SCF XES/XAS/RIXS spectra                ...  NO


-------------
DIPOLE MOMENT
-------------

Method             : SCF
Type of density    : Electron Density
Multiplicity       :   1
Irrep              :   0
Energy             :  -227.9843668738336930 Eh
Relativity type    : 
Basis              : AO
                                X                 Y                 Z
Electronic contribution:      0.040245034       0.010044996      -0.085165083
Nuclear contribution   :     -0.448409322      -0.630937686       1.348074640
                        -----------------------------------------
Total Dipole Moment    :     -0.408164289      -0.620892691       1.262909557
                        -----------------------------------------
Magnitude (a.u.)       :      1.465280304
Magnitude (Debye)      :      3.724446547



--------------------
Rotational spectrum 
--------------------
 
Rotational constants in cm-1:             0.107096             0.061757             0.039363 
Rotational constants in MHz :          3210.665861          1851.429844          1180.079648 

Dipole components along the rotational axes: 
x,y,z [a.u.] :     0.115996    -0.854869     1.184395 
x,y,z [Debye]:     0.294838    -2.172904     3.010492 

 

Dipole moment calculation done in   0.0 sec 

Maximum memory used throughout the entire PROP-calculation: 2.1 MB

--------------------------------
SUGGESTED CITATIONS FOR THIS RUN
--------------------------------

Below you find a list of papers that are relevant to this ORCA run
We neither can nor want to force you to cite these papers, but we appreciate if you do
You receive ORCA, which is the product of decades of hard work by many enthusiastic individuals, for free
The only thing we kindly ask in return is that you cite our papers,
We deeply appreciate it, if you show your appreciation for ORCA by not just citing the generic ORCA reference.

Please note that relegating all ORCA citations to the supporting information does *not* help us.
SI sections are not indexed - citations you put there will not count into any citation statistics
But we need these citations in order to attract the funding resources that allow us to do what we are doing

Therefore, if you are a happy ORCA user, please consider citing a few of the papers listed below in the main body of your paper

In addition to the list printed below, the program has created the file frag.bibtex that contains the list in bibtex format
You can import this file easily into all common literature databanks and citation aid programs


List of essential papers. We consider these as the minimum necessary citations

  1. Neese,F.
     Software update: the ORCA program system, version 5.0
     WIRES Comput. Molec. Sci., 2022 12(1)e1606
     doi.org/10.1002/wcms.1606

List of papers to cite with high priority. The work reported in these papers was absolutely
necessary for this run to complete.
Our perspective: the developers of density functionals and basis sets usually get cited in chemistry papers
Good! But without the algorithms to do something with them, the functionals or basis sets would not do anything.
Hence, in our opinion, the algorithm design and method developments papers are equally worthy of getting cited

  1. Neese,F.
     The SHARK Integral Generation and Digestion System
     J. Comp. Chem., 2022  1-16
     doi.org/10.1002/jcc.26942

List of suggested additional citations. These are papers that are important in the 'surrounding' of 
of this run, or papers that preceded the highly important papers. If you like your results we are grateful for a citation.

  1. Neese,F.
     The ORCA program system
     WIRES Comput. Molec. Sci., 2012 2(1)73-78
     doi.org/10.1002/wcms.81
  2. Neese,F.
     Software update: the ORCA program system, version 4.0
     WIRES Comput. Molec. Sci., 2018 8(1)1-6
     doi.org/10.1002/wcms.1327
  3. Neese,F.; Wennmohs,F.; Becker,U.; Riplinger,C.
     The ORCA quantum chemistry program package
     J. Chem. Phys., 2020 152 Art. No. L224108
     doi.org/10.1063/5.0004608

List of optional additional citations

  1. Neese,F.
     Approximate second-order SCF convergence for spin unrestricted wavefunctions
     Chem. Phys. Lett., 2000 325(1-3)93-98
     doi.org/10.1016/s0009-2614(00)00662-x

Timings for individual modules:

Sum of individual times          ...        1.709 sec (=   0.028 min)
Startup calculation              ...        0.306 sec (=   0.005 min)  17.9 %
SCF iterations                   ...        1.126 sec (=   0.019 min)  65.9 %
Property calculations            ...        0.068 sec (=   0.001 min)   4.0 %
SCF Gradient evaluation          ...        0.209 sec (=   0.003 min)  12.2 %
                             ****ORCA TERMINATED NORMALLY****
TOTAL RUN TIME: 0 days 0 hours 0 minutes 1 seconds 953 msec
