
                                 *****************
                                 * O   R   C   A *
                                 *****************

                                            #,                                       
                                            ###                                      
                                            ####                                     
                                            #####                                    
                                            ######                                   
                                           ########,                                 
                                     ,,################,,,,,                         
                               ,,#################################,,                 
                          ,,##########################################,,             
                       ,#########################################, ''#####,          
                    ,#############################################,,   '####,        
                  ,##################################################,,,,####,       
                ,###########''''           ''''###############################       
              ,#####''   ,,,,##########,,,,          '''####'''          '####       
            ,##' ,,,,###########################,,,                        '##       
           ' ,,###''''                  '''############,,,                           
         ,,##''                                '''############,,,,        ,,,,,,###''
      ,#''                                            '''#######################'''  
     '                                                          ''''####''''         
             ,#######,   #######,   ,#######,      ##                                
            ,#'     '#,  ##    ##  ,#'     '#,    #''#        ,####,   ,####,        
            ##       ##  ##   ,#'  ##            #'  '#       #'       #'  '#        
            ##       ##  #######   ##           ,######,      #####,   #    #        
            '#,     ,#'  ##    ##  '#,     ,#' ,#      #,     #,   #   #,  ,#        
             '#######'   ##     ##  '#######'  #'      '#     '####' # '####'        



                #########################################################
                #                        -***-                          #
                #          Department of theory and spectroscopy        #
                #                                                       #
                #                      Frank Neese                      #
                #                                                       #
                #     Directorship, Architecture, Infrastructure        #
                #                    SHARK, DRIVERS                     #
                #        Core code/Algorithms in most modules           #
                #                                                       #
                #        Max Planck Institute fuer Kohlenforschung      #
                #                Kaiser Wilhelm Platz 1                 #
                #                 D-45470 Muelheim/Ruhr                 #
                #                      Germany                          #
                #                                                       #
                #                  All rights reserved                  #
                #                        -***-                          #
                #########################################################


                         Program Version 6.0.1  -  RELEASE   -


 With contributions from (in alphabetic order):
[Max-Planck-Institut fuer Kohlenforschung]                               
  Daniel Aravena         : Magnetic Suceptibility                        
  Michael Atanasov       : Ab Initio Ligand Field Theory (pilot matlab implementation)
  Alexander A. Auer      : GIAO ZORA, VPT2 properties, NMR spectrum      
  Ute Becker             : All parallelization in ORCA, NUMFREQ, NUMCALC 
  Giovanni Bistoni       : ED, misc. LED, open-shell LED, HFLD           
  Martin Brehm           : Molecular dynamics                            
  Dmytro Bykov           : pre 5.0 version of the SCF Hessian            
  Marcos Casanova-Páez   : Triplet and SCS-CIS(D). UHF-(DLPNO)-IP/EA/STEOM-CCSD. UHF-CVS-IP/STEOM-CCSD   
  Vijay G. Chilkuri      : MRCI spin determinant printing, contributions to CSF-ICE 
  Pauline Colinet        : FMM embedding                                 
  Dipayan Datta          : RHF DLPNO-CCSD density                        
  Achintya Kumar Dutta   : EOM-CC, STEOM-CC                              
  Nicolas Foglia         : Exact transition moments, OPA infrastructure, MCD improvements    
  Dmitry Ganyushin       : Spin-Orbit,Spin-Spin,Magnetic field MRCI      
  Miquel Garcia-Rates    : C-PCM and meta-GGA Hessian, CCSD/C-PCM, Gaussian charge scheme 
  Tiago L. C. Gouveia    : GS-ROHF, GS-ROCIS                             
  Yang Guo               : DLPNO-NEVPT2, F12-NEVPT2, CIM, IAO-localization        
  Andreas Hansen         : Spin unrestricted coupled pair/coupled cluster methods 
  Ingolf Harden          : AUTO-CI MPn and infrastructure                
  Benjamin Helmich-Paris : MC-RPA, TRAH-(SCF,CASSCF), AVAS, COSX integrals, SCF dyn. polar. 
  Lee Huntington         : MR-EOM, pCC                                   
  Robert Izsak           : Overlap fitted RIJCOSX, COSX-SCS-MP3, EOM     
  Riya Kayal             : Wick's Theorem for AUTO-CI, AUTO-CI UHF-CCSDT 
  Emily Kempfer          : AUTO-CI, RHF CISDT and CCSDT                  
  Christian Kollmar      : KDIIS, OOCD, Brueckner-CCSD(T), CCSD density, CASPT2, CASPT2-K, improved NEVPT2 
  Axel Koslowski         : Symmetry handling                             
  Simone Kossmann        : meta-GGA functionals, TD-DFT gradient, OOMP2, (MP2 Hessian; deprecated post 5.0) 
  Lucas Lang             : DCDCAS                                        
  Marvin Lechner         : AUTO-CI (C++ implementation), FIC-MRCC        
  Spencer Leger          : CASSCF response                               
  Dagmar Lenk            : GEPOL surface, SMD, ORCA-2-JSON               
  Dimitrios Liakos       : Extrapolation schemes; Compound Job, initial MDCI parallelization 
  Dimitrios Manganas     : Further ROCIS development; embedding schemes. LFT, Crystal Embedding 
  Dimitrios Pantazis     : SARC Basis sets                               
  Anastasios Papadopoulos: AUTO-CI, single reference methods and gradients 
  Taras Petrenko         : pre 6.0 DFT Hessian and TD-DFT gradient, (ASA, deprecated), ECA, 1-Electron XAS/XES, NRVS 
  Peter Pinski           : DLPNO-MP2, DLPNO-MP2 Gradient                 
  Christoph Reimann      : Effective Core Potentials                     
  Marius Retegan         : Local ZFS, SOC                                
  Christoph Riplinger    : Optimizer, TS searches, QM/MM, DLPNO-CCSD(T), (RO)-DLPNO pert. Triples 
  Michael Roemelt        : Original ROCIS implementation                 
  Masaaki Saitow         : Open-shell DLPNO-CCSD energy and density      
  Barbara Sandhoefer     : DKH picture change effects                    
  Kantharuban Sivalingam : CASSCF convergence/infrastructure, NEVPT2 and variants, FIC-MRCI 
  Bernardo de Souza      : ESD, SOC TD-DFT                               
  Georgi L. Stoychev     : AutoAux, RI-MP2 NMR, DLPNO-MP2 response, X2C  
  Van Anh Tran           : RI-MP2 g-tensors                              
  Willem Van den Heuvel  : Paramagnetic NMR                              
  Zikuan Wang            : NOTCH, Electric field optimization            
  Frank Wennmohs         : Technical directorship and infrastructure     
  Hang Xu                : AUTO-CI-Response properties                   
                                                                         
[FACCTs GmbH]                                                            
  Markus Bursch, Miquel Garcia-Rates, Christoph Riplinger, Bernardo de Souza, Georgi L. Stoychev 
                                                                 
  APM, Basis sets (HGBS, AHGBS, def-TZVP (Ac-Lr), def2-XVPD (La-Lu)), CI-OPT, improved COSX, DLPNO-Multilevel,           
  DOCKER, DRACO, updates on ESD, GOAT, IRC, LR-CPCM, MBIS, meta-GGA TD-DFT gradient, ML-optimized integration grids, 
  MM, NACMEs, nearIR, NEB, NEB-TS, NL-DFT gradient (VV10), 2- and 3-layer-ONIOM, interface openCOSMO-RS, QMMM,   
  Crystal-QMMM, SF, symmetry and pop. for TD-DFT, r2SCAN hybrids, SOLVATOR                                   
                                                                         
[Other institutions]                                                     
  V. Asgeirsson          : NEB                                           
  Christoph Bannwarth    : sTDA-DFT, sTD-DFT, PBEh-3c, B97-3c, D3        
  Sebastian Ehlert       : rSCAN, r2SCAN, r2SCAN-3c, D4, dhf basis sets  
  Marvin Friede          : D4 for Fr, Ra, Ac-Lr                          
  Lars Goerigk           : TD-DFT with DH, B97 family of functionals     
  Stefan Grimme          : VdW corrections, initial TS optimization, DFT functionals, gCP, sTDA/sTD-DF 
  Waldemar Hujo          : DFT-NL                                        
  H. Jonsson             : NEB                                           
  Holger Kruse           : gCP                                           
  Marcel Mueller         : wB97X-3c, vDZP basis set                      
  Hagen Neugebauer       : wr2SCAN                                       
  Tobias Risthaus        : range-separated hybrid DFT                    
  Lukas Wittmann         : regularized MP2, r2SCAN double-hybrids, wr2SCAN        
                                                                         
We gratefully acknowledge several colleagues who have allowed us to      
interface, adapt or use parts of their codes:                            
  Ed Valeev, F. Pavosevic, A. Kumar             : LibInt (2-el integral package), F12 methods 
  Garnet Chan, S. Sharma, J. Yang, R. Olivares  : DMRG                   
  Ulf Ekstrom                                   : XCFun DFT Library      
  Mihaly Kallay                                 : mrcc  (arbitrary order and MRCC methods)
  Frank Weinhold                                : gennbo (NPA and NBO analysis)           
  Simon Mueller                                 : openCOSMO-RS                            
  Christopher J. Cramer and Donald G. Truhlar   : smd solvation model                     
  S Lehtola, MJT Oliveira, MAL Marques          : LibXC Library                           
  Liviu Ungur et al                             : ANISO software                          


 Your calculation uses the libint2 library for the computation of 2-el integrals
 For citations please refer to: http://libint.valeyev.net

 Your ORCA version has been built with support for libXC version: 6.2.2
 For citations please refer to: https://libxc.gitlab.io

 This ORCA versions uses:
   CBLAS   interface :  Fast vector & matrix operations
   LAPACKE interface :  Fast linear algebra routines
   SCALAPACK package :  Parallel linear algebra routines
   Shared memory     :  Shared parallel matrices
   BLAS/LAPACK       :  OpenBLAS 0.3.27  USE64BITINT DYNAMIC_ARCH NO_AFFINITY SkylakeX SINGLE_THREADED
        Core in use  :  SkylakeX
   Copyright (c) 2011-2014, The OpenBLAS Project


================================================================================

----- Orbital basis set information -----
Your calculation utilizes the basis: 6-31G*
   H-He, Li-Ne : W. J. Hehre, R. Ditchfield and J.A. Pople, J. Chem. Phys. 56, 2257 (1972).
                 Note: He and Ne are unpublished basis sets taken from the Gaussian program.
                 Note: Li and B from J. D. Dill and J. A. Pople, J. Chem. Phys. 62, 2921 (1975).
   Na - Ar     : M. M. Francl, W. J. Pietro, W. J. Hehre, J. S. Binkley, M. S. Gordon, 
                 D. J. DeFrees and J. A. Pople, J. Chem. Phys. 77, 3654 (1982).
   K - Zn      : V. A. Rassolov, J. A. Pople, M. A. Ratner, and T. L. Windus, J. Chem. Phys. 109, 1223 (1998).

================================================================================
                                        WARNINGS
                       Please study these warnings very carefully!
================================================================================


================================================================================
                                       INPUT FILE
================================================================================
NAME = frag.inp
|  1> !HF 6-31G* EnGrad
|  2> %pal nprocs 1 end
|  3> *xyz 0 1
|  4> O 21.31548000 47.19077000 40.87238000
|  5> H 22.11097000 46.98487000 41.16553000
|  6> H 20.96265000 46.41737000 40.67613000
|  7> O 21.78987000 47.25010000 37.48256000
|  8> H 21.67133000 47.22017000 38.34638000
|  9> H 21.14108000 47.76263000 37.20411000
| 10> O 22.25294000 44.28778000 39.87163000
| 11> H 22.68414000 43.83080000 40.47691000
| 12> H 22.81575000 44.91633000 39.64956000
| 13> O 21.99613000 48.36911000 43.54199000
| 14> H 21.97702000 49.24128000 43.53308000
| 15> H 21.46413000 48.14557000 42.88766000
| 16> *
| 17> 
| 18>                          ****END OF INPUT****
================================================================================

                     *******************************
                     * Energy+Gradient Calculation *
                     *******************************

---------------------------------
CARTESIAN COORDINATES (ANGSTROEM)
---------------------------------
  O     21.315480   47.190770   40.872380
  H     22.110970   46.984870   41.165530
  H     20.962650   46.417370   40.676130
  O     21.789870   47.250100   37.482560
  H     21.671330   47.220170   38.346380
  H     21.141080   47.762630   37.204110
  O     22.252940   44.287780   39.871630
  H     22.684140   43.830800   40.476910
  H     22.815750   44.916330   39.649560
  O     21.996130   48.369110   43.541990
  H     21.977020   49.241280   43.533080
  H     21.464130   48.145570   42.887660

----------------------------
CARTESIAN COORDINATES (A.U.)
----------------------------
  NO LB      ZA    FRAG     MASS         X           Y           Z
   0 O     8.0000    0    15.999   40.280420   89.177631   77.237605
   1 H     1.0000    0     1.008   41.783678   88.788537   77.791578
   2 H     1.0000    0     1.008   39.613668   87.716117   76.866746
   3 O     8.0000    0    15.999   41.176887   89.289749   70.831773
   4 H     1.0000    0     1.008   40.952879   89.233189   72.464156
   5 H     1.0000    0     1.008   39.950851   90.258290   70.305579
   6 O     8.0000    0    15.999   42.051962   83.691775   75.346461
   7 H     1.0000    0     1.008   42.866812   82.828208   76.490275
   8 H     1.0000    0     1.008   43.115519   84.879563   74.926810
   9 O     8.0000    0    15.999   41.566662   91.404371   82.282436
  10 H     1.0000    0     1.008   41.530549   93.052534   82.265599
  11 H     1.0000    0     1.008   40.561327   90.981942   81.045932

--------------------------------
INTERNAL COORDINATES (ANGSTROEM)
--------------------------------
 O      0   0   0     0.000000000000     0.00000000     0.00000000
 H      1   0   0     0.872431127712     0.00000000     0.00000000
 H      1   2   0     0.872439471482   103.59872274     0.00000000
 O      3   1   2     3.402443464071    84.02176965   259.51268005
 H      4   3   1     0.872429096775    13.88503522     2.34365367
 H      4   3   1     0.872439033687   105.22135928   277.23706635
 O      3   1   2     2.616719721751   126.24180712   329.77871731
 H      7   3   1     0.872426523439   117.17456234    76.98324549
 H      7   3   1     0.872436406565    79.04835924   337.20315741
 O      2   1   3     2.752611620770    97.66454154   232.09709776
 H     10   2   1     0.872424832923   119.65867956   292.19524676
 H     10   2   1     0.872434456277    41.32939881     8.44035756

---------------------------
INTERNAL COORDINATES (A.U.)
---------------------------
 O      0   0   0     0.000000000000     0.00000000     0.00000000
 H      1   0   0     1.648655902083     0.00000000     0.00000000
 H      1   2   0     1.648671669524   103.59872274     0.00000000
 O      3   1   2     6.429686333245    84.02176965   259.51268005
 H      4   3   1     1.648652064169    13.88503522     2.34365367
 H      4   3   1     1.648670842211   105.22135928   277.23706635
 O      3   1   2     4.944883643340   126.24180712   329.77871731
 H      7   3   1     1.648647201269   117.17456234    76.98324549
 H      7   3   1     1.648665877670    79.04835924   337.20315741
 O      2   1   3     5.201682116305    97.66454154   232.09709776
 H     10   2   1     1.648644006656   119.65867956   292.19524676
 H     10   2   1     1.648662192161    41.32939881     8.44035756

---------------------
BASIS SET INFORMATION
---------------------
There are 2 groups of distinct atoms

 Group   1 Type O   : 10s4p1d contracted to 3s2p1d pattern {631/31/1}
 Group   2 Type H   : 4s contracted to 2s pattern {31}

Atom   0O    basis set group =>   1
Atom   1H    basis set group =>   2
Atom   2H    basis set group =>   2
Atom   3O    basis set group =>   1
Atom   4H    basis set group =>   2
Atom   5H    basis set group =>   2
Atom   6O    basis set group =>   1
Atom   7H    basis set group =>   2
Atom   8H    basis set group =>   2
Atom   9O    basis set group =>   1
Atom  10H    basis set group =>   2
Atom  11H    basis set group =>   2
------------------------------------------------------------------------------
                             ORCA STARTUP CALCULATIONS
------------------------------------------------------------------------------
------------------------------------------------------------------------------
                   ___                                                        
                  /   \      - P O W E R E D   B Y -                         
                 /     \                                                     
                 |  |  |   _    _      __       _____    __    __             
                 |  |  |  | |  | |    /  \     |  _  \  |  |  /  |          
                  \  \/   | |  | |   /    \    | | | |  |  | /  /          
                 / \  \   | |__| |  /  /\  \   | |_| |  |  |/  /          
                |  |  |   |  __  | /  /__\  \  |    /   |      \           
                |  |  |   | |  | | |   __   |  |    \   |  |\   \          
                \     /   | |  | | |  |  |  |  | |\  \  |  | \   \       
                 \___/    |_|  |_| |__|  |__|  |_| \__\ |__|  \__/        
                                                                              
                      - O R C A' S   B I G   F R I E N D -                    
                                      &                                       
                       - I N T E G R A L  F E E D E R -                       
                                                                              
 v1 FN, 2020, v2 2021, v3 2022-2024                                           
------------------------------------------------------------------------------


----------------------
SHARK INTEGRAL PACKAGE
----------------------

Number of atoms                             ...     12
Number of basis functions                   ...     72
Number of shells                            ...     40
Maximum angular momentum                    ...      2
Integral batch strategy                     ... SHARK/LIBINT Hybrid
RI-J (if used) integral strategy            ... SPLIT-RIJ (Revised 2003 algorithm where possible)
Printlevel                                  ...      1
Contraction scheme used                     ... SEGMENTED contraction
Prescreening option                         ... SCHWARTZ
   Thresh                                   ... 2.500e-11
   Tcut                                     ... 2.500e-12
   Tpresel                                  ... 2.500e-12 
Coulomb Range Separation                    ... NOT USED
Exchange Range Separation                   ... NOT USED
Multipole approximations                    ... NOT USED
Finite Nucleus Model                        ... NOT USED
CABS basis                                  ... NOT available
Auxiliary Coulomb fitting basis             ... NOT available
Auxiliary J/K fitting basis                 ... NOT available
Auxiliary Correlation fitting basis         ... NOT available
Auxiliary 'external' fitting basis          ... NOT available

Checking pre-screening integrals            ... done (  0.0 sec) Dimension = 40
Check shell pair data                       ... done (  0.0 sec)
Shell pair information
Shell pair cut-off parameter TPreSel        ...   2.5e-12
Total number of shell pairs                 ...       820
Shell pairs after pre-screening             ...       701
Total number of primitive shell pairs       ...      4386
Primitive shell pairs kept                  ...      2425
          la=0 lb=0:    347 shell pairs
          la=1 lb=0:    190 shell pairs
          la=1 lb=1:     34 shell pairs
          la=2 lb=0:     94 shell pairs
          la=2 lb=1:     28 shell pairs
          la=2 lb=2:      8 shell pairs

Calculating one electron integrals          ... done (  0.0 sec)
Calculating Nuclear repulsion               ... done (  0.0 sec) ENN=    123.032005534259 Eh

Diagonalization of the overlap matrix:
Smallest eigenvalue                        ... 4.170e-02
Time for diagonalization                   ...    0.001 sec
Threshold for overlap eigenvalues          ... 1.000e-07
Number of eigenvalues below threshold      ... 0
Time for construction of square roots      ...    0.005 sec
Total time needed                          ...    0.012 sec

-------------------
DFT GRID GENERATION
-------------------

General Integration Accuracy     IntAcc      ... 4.388
Radial Grid Type                 RadialGrid  ... OptM3 with GC (2021)
Angular Grid (max. ang.)         AngularGrid ... 4 (Lebedev-302)
Angular grid pruning method      GridPruning ... 4 (adaptive)
Weight generation scheme         WeightScheme... mBecke (2022)
Basis function cutoff            BFCut       ... 1.0000e-11
Integration weight cutoff        WCut        ... 1.0000e-14
Partially contracted basis set               ... off
Rotationally invariant grid construction     ... off
Angular grids for H and He will be reduced by one unit

Total number of grid points                  ...    50756
Total number of batches                      ...      799
Average number of points per batch           ...       63
Average number of grid points per atom       ...     4230
Initializing property integral containers    ... done (  0.0 sec)

SHARK setup successfully completed in   0.5 seconds

Maximum memory used throughout the entire STARTUP-calculation: 17.4 MB
-------------------------------------------------------------------------------
                                 ORCA GUESS
                   Start orbitals & Density for SCF / CASSCF
-------------------------------------------------------------------------------

------------
SCF SETTINGS
------------
Hamiltonian:
 Ab initio Hamiltonian  Method          .... Hartree-Fock(GTOs)


General Settings:
 Integral files         IntName         .... frag
 Hartree-Fock type      HFTyp           .... RHF
 Total Charge           Charge          ....    0
 Multiplicity           Mult            ....    1
 Number of Electrons    NEL             ....   40
 Basis Dimension        Dim             ....   72
 Nuclear Repulsion      ENuc            ....    123.0320055343 Eh

Convergence Acceleration:
 AO-DIIS                CNVDIIS         .... on
   Start iteration      DIISMaxIt       ....    12
   Startup error        DIISStart       ....  0.200000
   # of expansion vecs  DIISMaxEq       ....     5
   Bias factor          DIISBfac        ....   1.050
   Max. coefficient     DIISMaxC        ....  10.000
 MO-DIIS                CNVKDIIS        .... off
 Trust-Rad. Augm. Hess. CNVTRAH         .... auto
   Auto Start mean grad. ratio tolernc. ....  1.125000
   Auto Start start iteration           ....    50
   Auto Start num. interpolation iter.  ....    10
   Max. Number of Micro iterations      ....    24
   Max. Number of Macro iterations      .... Maxiter - #DIIS iter
   Number of Davidson start vectors     ....     2
   Converg. threshold    (grad. norm)   ....   1.000e-05
   Grad. Scal. Fac. for Micro threshold ....   0.100
   Minimum threshold for Micro iter.    ....   1.000e-02
   NR start threshold (gradient norm)   ....   1.000e-04
   Initial trust radius                 ....   0.400
   Minimum AH scaling param. (alpha)    ....   1.000
   Maximum AH scaling param. (alpha)    .... 1000.000
   Quad. conv. algorithm                .... NR
   White noise on init. David. guess    .... on
   Maximum white noise                  ....   0.010
   Pseudo random numbers                .... off
   Inactive MOs                         .... canonical
   Orbital update algorithm             .... Taylor
   Preconditioner                       .... Diag
   Full preconditioner red. dimension   ....   250
 SOSCF                  CNVSOSCF        .... on
   Start iteration      SOSCFMaxIt      ....   150
   Startup grad/error   SOSCFStart      ....  0.003300
   Hessian update       SOSCFHessUp     .... L-BFGS
 Level Shifting         CNVShift        .... on
   Level shift para.    LevelShift      ....    0.2500
   Turn off err/grad.   ShiftErr        ....    0.0010
 Zerner damping         CNVZerner       .... off
 Static damping         CNVDamp         .... on
   Fraction old density DampFac         ....    0.7000
   Max. Damping (<1)    DampMax         ....    0.9800
   Min. Damping (>=0)   DampMin         ....    0.0000
   Turn off err/grad.   DampErr         ....    0.1000

SCF Procedure:
 Maximum # iterations   MaxIter         ....   125
 SCF integral mode      SCFMode         .... Direct
   Integral package                     .... SHARK and LIBINT hybrid scheme
 Reset frequency        DirectResetFreq ....    20
 Integral Threshold     Thresh          ....  2.500e-11 Eh
 Primitive CutOff       TCut            ....  2.500e-12 Eh

Convergence Tolerance:
 Convergence Check Mode ConvCheckMode   .... Total+1el-Energy
 Convergence forced     ConvForced      .... 0
 Energy Change          TolE            ....  1.000e-08 Eh
 1-El. energy change                    ....  1.000e-05 Eh
 Orbital Gradient       TolG            ....  1.000e-05
 Orbital Rotation angle TolX            ....  1.000e-05
 DIIS Error             TolErr          ....  5.000e-07

------------------------------
INITIAL GUESS: MODEL POTENTIAL
------------------------------
Loading Hartree-Fock densities                     ... done
Calculating cut-offs                               ... done
Initializing the effective Hamiltonian             ... done
Setting up the integral package (SHARK)            ... done
Starting the Coulomb interaction                   ... done (   0.0 sec)
Making the grid                                    ... done (   0.1 sec)
Mapping shells                                     ... done
Starting the XC term evaluation                    ... done (   0.0 sec)
Transforming the Hamiltonian                       ... done (   0.0 sec)
Diagonalizing the Hamiltonian                      ... done (   0.0 sec)
Back transforming the eigenvectors                 ... done (   0.0 sec)
Now organizing SCF variables                       ... done
                      ------------------
                      INITIAL GUESS DONE (   0.2 sec)
                      ------------------
             **** ENERGY FILE WAS UPDATED (frag.en.tmp) ****
Finished Guess after   0.2 sec
Maximum memory used throughout the entire GUESS-calculation: 7.4 MB

-------------------------------------------------------------------------------------------
                                      ORCA LEAN-SCF
                              memory conserving SCF solver
-------------------------------------------------------------------------------------------

----------------------------------------D-I-I-S--------------------------------------------
Iteration    Energy (Eh)           Delta-E    RMSDP     MaxDP     DIISErr   Damp  Time(sec)
-------------------------------------------------------------------------------------------
               ***  Starting incremental Fock matrix formation  ***
    1    -303.5967448144478453     0.00e+00  6.15e-03  7.20e-02  3.30e-01  0.700   0.2
    2    -303.7518623929730097    -1.55e-01  4.18e-03  4.95e-02  2.01e-01  0.700   0.2
                               ***Turning on AO-DIIS***
    3    -303.8356060395828422    -8.37e-02  1.64e-03  2.17e-02  1.13e-01  0.700   0.2
    4    -303.8861977455343890    -5.06e-02  1.00e-03  1.39e-02  7.64e-02  0.700   0.2
    5    -303.9196317299852126    -3.34e-02  2.33e-03  3.29e-02  5.43e-02  0.000   0.2
    6    -303.9941864388813428    -7.46e-02  1.78e-04  1.80e-03  3.34e-03  0.000   0.2
                              *** Initializing SOSCF ***
---------------------------------------S-O-S-C-F--------------------------------------
Iteration    Energy (Eh)           Delta-E    RMSDP     MaxDP     MaxGrad    Time(sec)
--------------------------------------------------------------------------------------
    7    -303.9942464783236460    -6.00e-05  1.08e-04  8.82e-04  1.20e-03     0.2
               *** Restarting incremental Fock matrix formation ***
    8    -303.9942588699744874    -1.24e-05  4.67e-05  4.81e-04  2.34e-04     0.2
    9    -303.9942602571039174    -1.39e-06  3.05e-05  3.00e-04  8.56e-05     0.1
   10    -303.9942605240597118    -2.67e-07  3.87e-06  5.12e-05  3.48e-05     0.1
   11    -303.9942605364627184    -1.24e-08  9.96e-07  1.21e-05  7.51e-06     0.1
   12    -303.9942605374100140    -9.47e-10  1.78e-07  2.41e-06  8.05e-07     0.1
                 **** Energy Check signals convergence ****

               *****************************************************
               *                     SUCCESS                       *
               *           SCF CONVERGED AFTER  12 CYCLES          *
               *****************************************************

             **** ENERGY FILE WAS UPDATED (frag.en.tmp) ****

----------------
TOTAL SCF ENERGY
----------------

Total Energy       :       -303.99426053741001 Eh           -8272.10437 eV

Components:
Nuclear Repulsion  :        123.03200553425950 Eh            3347.87107 eV
Electronic Energy  :       -427.02626607166951 Eh          -11619.97545 eV
One Electron Energy:       -663.38595707233071 Eh          -18051.64962 eV
Two Electron Energy:        236.35969100066120 Eh            6431.67417 eV

Virial components:
Potential Energy   :       -609.49904506168662 Eh          -16585.31220 eV
Kinetic Energy     :        305.50478452427660 Eh            8313.20782 eV
Virial Ratio       :          1.99505564539940

---------------
SCF CONVERGENCE
---------------

  Last Energy change         ...    9.4730e-10  Tolerance :   1.0000e-08
  Last MAX-Density change    ...    2.4147e-06  Tolerance :   1.0000e-07
  Last RMS-Density change    ...    1.7793e-07  Tolerance :   5.0000e-09
  Last DIIS Error            ...    1.1953e-03  Tolerance :   5.0000e-07
  Last Orbital Gradient      ...    8.0527e-07  Tolerance :   1.0000e-05
  Last Orbital Rotation      ...    6.8807e-07  Tolerance :   1.0000e-05


----------------
ORBITAL ENERGIES
----------------

  NO   OCC          E(Eh)            E(eV) 
   0   2.0000     -20.570789      -559.7596 
   1   2.0000     -20.562807      -559.5424 
   2   2.0000     -20.531525      -558.6912 
   3   2.0000     -20.530829      -558.6723 
   4   2.0000      -1.423422       -38.7333 
   5   2.0000      -1.415032       -38.5050 
   6   2.0000      -1.385524       -37.7020 
   7   2.0000      -1.384609       -37.6771 
   8   2.0000      -0.786970       -21.4146 
   9   2.0000      -0.777714       -21.1627 
  10   2.0000      -0.748002       -20.3542 
  11   2.0000      -0.747684       -20.3455 
  12   2.0000      -0.624336       -16.9890 
  13   2.0000      -0.612597       -16.6696 
  14   2.0000      -0.585336       -15.9278 
  15   2.0000      -0.583175       -15.8690 
  16   2.0000      -0.536858       -14.6087 
  17   2.0000      -0.527573       -14.3560 
  18   2.0000      -0.499810       -13.6005 
  19   2.0000      -0.498695       -13.5702 
  20   0.0000       0.172285         4.6881 
  21   0.0000       0.243827         6.6349 
  22   0.0000       0.253379         6.8948 
  23   0.0000       0.285130         7.7588 
  24   0.0000       0.303811         8.2671 
  25   0.0000       0.334328         9.0975 
  26   0.0000       0.389126        10.5887 
  27   0.0000       0.393338        10.7033 
  28   0.0000       1.018211        27.7069 
  29   0.0000       1.029713        28.0199 
  30   0.0000       1.062508        28.9123 
*Only the first 10 virtual orbitals were printed.

                    ********************************
                    * MULLIKEN POPULATION ANALYSIS *
                    ********************************

-----------------------
MULLIKEN ATOMIC CHARGES
-----------------------
   0 O :   -0.906688
   1 H :    0.454509
   2 H :    0.470046
   3 O :   -0.907523
   4 H :    0.449296
   5 H :    0.443800
   6 O :   -0.891209
   7 H :    0.450246
   8 H :    0.449145
   9 O :   -0.921279
  10 H :    0.442238
  11 H :    0.467419
Sum of atomic charges:    0.0000000

--------------------------------
MULLIKEN REDUCED ORBITAL CHARGES
--------------------------------
  0 O s       :     3.852262  s :     3.852262
      pz      :     1.897349  p :     5.021745
      px      :     1.491363
      py      :     1.633033
      dz2     :     0.004593  d :     0.032680
      dxz     :     0.003023
      dyz     :     0.003721
      dx2y2   :     0.012596
      dxy     :     0.008747

  1 H s       :     0.545491  s :     0.545491

  2 H s       :     0.529954  s :     0.529954

  3 O s       :     3.848206  s :     3.848206
      pz      :     1.462296  p :     5.026217
      px      :     1.734456
      py      :     1.829465
      dz2     :     0.015149  d :     0.033099
      dxz     :     0.004275
      dyz     :     0.001193
      dx2y2   :     0.002590
      dxy     :     0.009892

  4 H s       :     0.550704  s :     0.550704

  5 H s       :     0.556200  s :     0.556200

  6 O s       :     3.849349  s :     3.849349
      pz      :     1.717220  p :     5.008349
      px      :     1.707922
      py      :     1.583208
      dz2     :     0.004741  d :     0.033511
      dxz     :     0.009468
      dyz     :     0.002905
      dx2y2   :     0.001750
      dxy     :     0.014647

  7 H s       :     0.549754  s :     0.549754

  8 H s       :     0.550855  s :     0.550855

  9 O s       :     3.851894  s :     3.851894
      pz      :     1.749332  p :     5.036328
      px      :     1.822356
      py      :     1.464640
      dz2     :     0.007209  d :     0.033057
      dxz     :     0.010314
      dyz     :     0.001774
      dx2y2   :     0.012193
      dxy     :     0.001567

 10 H s       :     0.557762  s :     0.557762

 11 H s       :     0.532581  s :     0.532581



                     *******************************
                     * LOEWDIN POPULATION ANALYSIS *
                     *******************************

----------------------
LOEWDIN ATOMIC CHARGES
----------------------
   0 O :   -0.616134
   1 H :    0.315710
   2 H :    0.319799
   3 O :   -0.632965
   4 H :    0.306215
   5 H :    0.314237
   6 O :   -0.621813
   7 H :    0.316898
   8 H :    0.313523
   9 O :   -0.637527
  10 H :    0.313769
  11 H :    0.308288

-------------------------------
LOEWDIN REDUCED ORBITAL CHARGES
-------------------------------
  0 O s       :     3.550650  s :     3.550650
      pz      :     1.893089  p :     5.024849
      px      :     1.492406
      py      :     1.639354
      dz2     :     0.005244  d :     0.040635
      dxz     :     0.003946
      dyz     :     0.004367
      dx2y2   :     0.015984
      dxy     :     0.011093

  1 H s       :     0.684290  s :     0.684290

  2 H s       :     0.680201  s :     0.680201

  3 O s       :     3.552142  s :     3.552142
      pz      :     1.463648  p :     5.039356
      px      :     1.742668
      py      :     1.833040
      dz2     :     0.019790  d :     0.041467
      dxz     :     0.005399
      dyz     :     0.001653
      dx2y2   :     0.002686
      dxy     :     0.011938

  4 H s       :     0.693785  s :     0.693785

  5 H s       :     0.685763  s :     0.685763

  6 O s       :     3.555433  s :     3.555433
      pz      :     1.719765  p :     5.024243
      px      :     1.722701
      py      :     1.581777
      dz2     :     0.005698  d :     0.042138
      dxz     :     0.011447
      dyz     :     0.004441
      dx2y2   :     0.001814
      dxy     :     0.018738

  7 H s       :     0.683102  s :     0.683102

  8 H s       :     0.686477  s :     0.686477

  9 O s       :     3.551463  s :     3.551463
      pz      :     1.746855  p :     5.044912
      px      :     1.827213
      py      :     1.470845
      dz2     :     0.008939  d :     0.041152
      dxz     :     0.012180
      dyz     :     0.002276
      dx2y2   :     0.015852
      dxy     :     0.001906

 10 H s       :     0.686231  s :     0.686231

 11 H s       :     0.691712  s :     0.691712



                      *****************************
                      * MAYER POPULATION ANALYSIS *
                      *****************************

  NA   - Mulliken gross atomic population
  ZA   - Total nuclear charge
  QA   - Mulliken gross atomic charge
  VA   - Mayer's total valence
  BVA  - Mayer's bonded valence
  FA   - Mayer's free valence

  ATOM       NA         ZA         QA         VA         BVA        FA
  0 O      8.9067     8.0000    -0.9067     1.5736     1.5736     0.0000
  1 H      0.5455     1.0000     0.4545     0.7641     0.7641     0.0000
  2 H      0.5300     1.0000     0.4700     0.7561     0.7561     0.0000
  3 O      8.9075     8.0000    -0.9075     1.5334     1.5334    -0.0000
  4 H      0.5507     1.0000     0.4493     0.7783     0.7783     0.0000
  5 H      0.5562     1.0000     0.4438     0.7687     0.7687     0.0000
  6 O      8.8912     8.0000    -0.8912     1.5626     1.5626    -0.0000
  7 H      0.5498     1.0000     0.4502     0.7629     0.7629    -0.0000
  8 H      0.5509     1.0000     0.4491     0.7654     0.7654    -0.0000
  9 O      8.9213     8.0000    -0.9213     1.5238     1.5238     0.0000
 10 H      0.5578     1.0000     0.4422     0.7709     0.7709     0.0000
 11 H      0.5326     1.0000     0.4674     0.7612     0.7612     0.0000

  Mayer bond orders larger than 0.100000
B(  0-O ,  1-H ) :   0.7584 B(  0-O ,  2-H ) :   0.7439 B(  3-O ,  4-H ) :   0.7532 
B(  3-O ,  5-H ) :   0.7787 B(  6-O ,  7-H ) :   0.7716 B(  6-O ,  8-H ) :   0.7668 
B(  9-O , 10-H ) :   0.7802 B(  9-O , 11-H ) :   0.7348 

-------
TIMINGS
-------

Total SCF time: 0 days 0 hours 0 min 2 sec 

Total time                  ....       2.032 sec
Sum of individual times     ....       1.913 sec  ( 94.2%)

SCF preparation             ....       0.073 sec  (  3.6%)
Fock matrix formation       ....       1.517 sec  ( 74.7%)
  Startup                   ....       0.022 sec  (  1.5% of F)
  Coulomb+Exchange Fock     ....       1.418 sec  ( 93.5% of F)
Diagonalization             ....       0.000 sec  (  0.0%)
Density matrix formation    ....       0.086 sec  (  4.2%)
Total Energy calculation    ....       0.036 sec  (  1.8%)
Population analysis         ....       0.019 sec  (  1.0%)
Orbital Transformation      ....       0.019 sec  (  0.9%)
Orbital Orthonormalization  ....       0.000 sec  (  0.0%)
DIIS solution               ....       0.117 sec  (  5.7%)
SOSCF solution              ....       0.047 sec  (  2.3%)
Finished LeanSCF after   2.0 sec

Maximum memory used throughout the entire LEANSCF-calculation: 8.2 MB

-------------------------   --------------------
FINAL SINGLE POINT ENERGY      -303.994260537410
-------------------------   --------------------

------------------------------------------------------------------------------
                         ORCA SCF GRADIENT CALCULATION
------------------------------------------------------------------------------

Nuc. rep. gradient        (SHARK) ... done (  0.0 sec)
HCore & Overlap gradient  (SHARK) ... done (  0.0 sec)
Two-electron gradient     (SHARK) ... done (  0.5 sec)

------------------
CARTESIAN GRADIENT
------------------

   1   O   :    0.051069029   -0.117645918    0.014645986
   2   H   :   -0.106233735    0.018889614   -0.040125359
   3   H   :    0.054216561    0.101246481    0.026836702
   4   O   :   -0.090180102    0.057068912    0.068187111
   5   H   :    0.009408596    0.006884476   -0.114574703
   6   H   :    0.080842193   -0.065136034    0.044279868
   7   O   :    0.117246804    0.014571592    0.040047994
   8   H   :   -0.048750659    0.066665040   -0.079152711
   9   H   :   -0.068610663   -0.082813650    0.039130374
  10   O   :   -0.065834670    0.075229249   -0.077648931
  11   H   :   -0.003459182   -0.112856548   -0.005953623
  12   H   :    0.070285829    0.037896785    0.084327292

Difference to translation invariance:
           :   -0.0000000000   -0.0000000001   -0.0000000000

Difference to rotation invariance:
           :   -0.0000004910    0.0000003395   -0.0000002453

Norm of the Cartesian gradient     ...    0.4121978764
RMS gradient                       ...    0.0686996461
MAX gradient                       ...    0.1176459177

-------
TIMINGS
-------

Total SCF gradient time     ....        0.568 sec

Densities                   ....       0.000 sec  (  0.0%)
One electron gradient       ....       0.036 sec  (  6.4%)
Two electron gradient       ....       0.531 sec  ( 93.6%)

Maximum memory used throughout the entire SCFGRAD-calculation: 14.1 MB

------------------------------------------------------------------------------
                              ORCA PROPERTY CALCULATIONS
------------------------------------------------------------------------------

GBWName                                 ... frag.gbw
Number of atoms                         ...     12
Number of basis functions               ...     72
Max core memory                         ...   1024 MB

Electric properties:
Dipole moment                           ... YES
Quadrupole moment                       ...  NO
Static polarizability (Dipole/Dipole)   ...  NO
Static polarizability (Dipole/Quad.)    ...  NO
Static polarizability (Quad./Quad.)     ...  NO
Static polarizability (Velocity)        ...  NO

Atomic electric properties:
Dipole moment                           ...  NO
Quadrupole moment                       ...  NO
Static polarizability                   ...  NO

Choice of electric origin               ... Center of mass
Position of electric origin             ...    41.272108    88.399433    76.435202

General magnetic properties:
Magnetizability                         ...  NO

EPR properties:
g-Tensor (aka g-matrix)                 ...  NO
Zero-Field splitting spin-orbit         ...  NO
Zero-field splitting spin-spin          ...  NO
Hyperfine couplings                     ...  NO (   0 nuclei)
Quadrupole couplings                    ...  NO (   0 nuclei)
Contact density                         ...  NO (   0 nuclei)

NMR properties:
Chemical shifts                         ...  NO (   0 nuclei)
Spin-rotation constants                 ...  NO (   0 nuclei)
Spin-spin couplings                     ...  NO (   0 nuclei,    0 pairs)

Choice of magnetic origin               ... GIAO
Position of magnetic origin             ...     0.000000     0.000000     0.000000

Properties with geometric perturbations:
SCF Hessian                             ...  NO
IR spectrum                             ...  NO
VCD spectrum                            ...  NO
X-ray spectroscopy properties:
SCF XES/XAS/RIXS spectra                ...  NO


-------------
DIPOLE MOMENT
-------------

Method             : SCF
Type of density    : Electron Density
Multiplicity       :   1
Irrep              :   0
Energy             :  -303.9942605374100140 Eh
Relativity type    : 
Basis              : AO
                                X                 Y                 Z
Electronic contribution:     -0.030100637      -0.120531565      -0.033278034
Nuclear contribution   :      0.098409998       0.269268666       0.334808743
                        -----------------------------------------
Total Dipole Moment    :      0.068309361       0.148737101       0.301530708
                        -----------------------------------------
Magnitude (a.u.)       :      0.343088417
Magnitude (Debye)      :      0.872061453



--------------------
Rotational spectrum 
--------------------
 
Rotational constants in cm-1:             0.121641             0.044277             0.033364 
Rotational constants in MHz :          3646.715865          1327.394331          1000.232546 

Dipole components along the rotational axes: 
x,y,z [a.u.] :     0.334973     0.001847    -0.074159 
x,y,z [Debye]:     0.851433     0.004696    -0.188498 

 

Dipole moment calculation done in   0.0 sec 

Maximum memory used throughout the entire PROP-calculation: 2.7 MB

--------------------------------
SUGGESTED CITATIONS FOR THIS RUN
--------------------------------

Below you find a list of papers that are relevant to this ORCA run
We neither can nor want to force you to cite these papers, but we appreciate if you do
You receive ORCA, which is the product of decades of hard work by many enthusiastic individuals, for free
The only thing we kindly ask in return is that you cite our papers,
We deeply appreciate it, if you show your appreciation for ORCA by not just citing the generic ORCA reference.

Please note that relegating all ORCA citations to the supporting information does *not* help us.
SI sections are not indexed - citations you put there will not count into any citation statistics
But we need these citations in order to attract the funding resources that allow us to do what we are doing

Therefore, if you are a happy ORCA user, please consider citing a few of the papers listed below in the main body of your paper

In addition to the list printed below, the program has created the file frag.bibtex that contains the list in bibtex format
You can import this file easily into all common literature databanks and citation aid programs


List of essential papers. We consider these as the minimum necessary citations

  1. Neese,F.
     Software update: the ORCA program system, version 5.0
     WIRES Comput. Molec. Sci., 2022 12(1)e1606
     doi.org/10.1002/wcms.1606

List of papers to cite with high priority. The work reported in these papers was absolutely
necessary for this run to complete.
Our perspective: the developers of density functionals and basis sets usually get cited in chemistry papers
Good! But without the algorithms to do something with them, the functionals or basis sets would not do anything.
Hence, in our opinion, the algorithm design and method developments papers are equally worthy of getting cited

  1. Neese,F.
     The SHARK Integral Generation and Digestion System
     J. Comp. Chem., 2022  1-16
     doi.org/10.1002/jcc.26942

List of suggested additional citations. These are papers that are important in the 'surrounding' of 
of this run, or papers that preceded the highly important papers. If you like your results we are grateful for a citation.

  1. Neese,F.
     The ORCA program system
     WIRES Comput. Molec. Sci., 2012 2(1)73-78
     doi.org/10.1002/wcms.81
  2. Neese,F.
     Software update: the ORCA program system, version 4.0
     WIRES Comput. Molec. Sci., 2018 8(1)1-6
     doi.org/10.1002/wcms.1327
  3. Neese,F.; Wennmohs,F.; Becker,U.; Riplinger,C.
     The ORCA quantum chemistry program package
     J. Chem. Phys., 2020 152 Art. No. L224108
     doi.org/10.1063/5.0004608

List of optional additional citations

  1. Neese,F.
     Approximate second-order SCF convergence for spin unrestricted wavefunctions
     Chem. Phys. Lett., 2000 325(1-3)93-98
     doi.org/10.1016/s0009-2614(00)00662-x

Timings for individual modules:

Sum of individual times          ...        3.527 sec (=   0.059 min)
Startup calculation              ...        0.541 sec (=   0.009 min)  15.3 %
SCF iterations                   ...        2.316 sec (=   0.039 min)  65.7 %
Property calculations            ...        0.051 sec (=   0.001 min)   1.5 %
SCF Gradient evaluation          ...        0.618 sec (=   0.010 min)  17.5 %
                             ****ORCA TERMINATED NORMALLY****
TOTAL RUN TIME: 0 days 0 hours 0 minutes 3 seconds 768 msec
