
                                 *****************
                                 * O   R   C   A *
                                 *****************

                                            #,                                       
                                            ###                                      
                                            ####                                     
                                            #####                                    
                                            ######                                   
                                           ########,                                 
                                     ,,################,,,,,                         
                               ,,#################################,,                 
                          ,,##########################################,,             
                       ,#########################################, ''#####,          
                    ,#############################################,,   '####,        
                  ,##################################################,,,,####,       
                ,###########''''           ''''###############################       
              ,#####''   ,,,,##########,,,,          '''####'''          '####       
            ,##' ,,,,###########################,,,                        '##       
           ' ,,###''''                  '''############,,,                           
         ,,##''                                '''############,,,,        ,,,,,,###''
      ,#''                                            '''#######################'''  
     '                                                          ''''####''''         
             ,#######,   #######,   ,#######,      ##                                
            ,#'     '#,  ##    ##  ,#'     '#,    #''#        ,####,   ,####,        
            ##       ##  ##   ,#'  ##            #'  '#       #'       #'  '#        
            ##       ##  #######   ##           ,######,      #####,   #    #        
            '#,     ,#'  ##    ##  '#,     ,#' ,#      #,     #,   #   #,  ,#        
             '#######'   ##     ##  '#######'  #'      '#     '####' # '####'        



                #########################################################
                #                        -***-                          #
                #          Department of theory and spectroscopy        #
                #                                                       #
                #                      Frank Neese                      #
                #                                                       #
                #     Directorship, Architecture, Infrastructure        #
                #                    SHARK, DRIVERS                     #
                #        Core code/Algorithms in most modules           #
                #                                                       #
                #        Max Planck Institute fuer Kohlenforschung      #
                #                Kaiser Wilhelm Platz 1                 #
                #                 D-45470 Muelheim/Ruhr                 #
                #                      Germany                          #
                #                                                       #
                #                  All rights reserved                  #
                #                        -***-                          #
                #########################################################


                         Program Version 6.0.1  -  RELEASE   -


 With contributions from (in alphabetic order):
[Max-Planck-Institut fuer Kohlenforschung]                               
  Daniel Aravena         : Magnetic Suceptibility                        
  Michael Atanasov       : Ab Initio Ligand Field Theory (pilot matlab implementation)
  Alexander A. Auer      : GIAO ZORA, VPT2 properties, NMR spectrum      
  Ute Becker             : All parallelization in ORCA, NUMFREQ, NUMCALC 
  Giovanni Bistoni       : ED, misc. LED, open-shell LED, HFLD           
  Martin Brehm           : Molecular dynamics                            
  Dmytro Bykov           : pre 5.0 version of the SCF Hessian            
  Marcos Casanova-Páez   : Triplet and SCS-CIS(D). UHF-(DLPNO)-IP/EA/STEOM-CCSD. UHF-CVS-IP/STEOM-CCSD   
  Vijay G. Chilkuri      : MRCI spin determinant printing, contributions to CSF-ICE 
  Pauline Colinet        : FMM embedding                                 
  Dipayan Datta          : RHF DLPNO-CCSD density                        
  Achintya Kumar Dutta   : EOM-CC, STEOM-CC                              
  Nicolas Foglia         : Exact transition moments, OPA infrastructure, MCD improvements    
  Dmitry Ganyushin       : Spin-Orbit,Spin-Spin,Magnetic field MRCI      
  Miquel Garcia-Rates    : C-PCM and meta-GGA Hessian, CCSD/C-PCM, Gaussian charge scheme 
  Tiago L. C. Gouveia    : GS-ROHF, GS-ROCIS                             
  Yang Guo               : DLPNO-NEVPT2, F12-NEVPT2, CIM, IAO-localization        
  Andreas Hansen         : Spin unrestricted coupled pair/coupled cluster methods 
  Ingolf Harden          : AUTO-CI MPn and infrastructure                
  Benjamin Helmich-Paris : MC-RPA, TRAH-(SCF,CASSCF), AVAS, COSX integrals, SCF dyn. polar. 
  Lee Huntington         : MR-EOM, pCC                                   
  Robert Izsak           : Overlap fitted RIJCOSX, COSX-SCS-MP3, EOM     
  Riya Kayal             : Wick's Theorem for AUTO-CI, AUTO-CI UHF-CCSDT 
  Emily Kempfer          : AUTO-CI, RHF CISDT and CCSDT                  
  Christian Kollmar      : KDIIS, OOCD, Brueckner-CCSD(T), CCSD density, CASPT2, CASPT2-K, improved NEVPT2 
  Axel Koslowski         : Symmetry handling                             
  Simone Kossmann        : meta-GGA functionals, TD-DFT gradient, OOMP2, (MP2 Hessian; deprecated post 5.0) 
  Lucas Lang             : DCDCAS                                        
  Marvin Lechner         : AUTO-CI (C++ implementation), FIC-MRCC        
  Spencer Leger          : CASSCF response                               
  Dagmar Lenk            : GEPOL surface, SMD, ORCA-2-JSON               
  Dimitrios Liakos       : Extrapolation schemes; Compound Job, initial MDCI parallelization 
  Dimitrios Manganas     : Further ROCIS development; embedding schemes. LFT, Crystal Embedding 
  Dimitrios Pantazis     : SARC Basis sets                               
  Anastasios Papadopoulos: AUTO-CI, single reference methods and gradients 
  Taras Petrenko         : pre 6.0 DFT Hessian and TD-DFT gradient, (ASA, deprecated), ECA, 1-Electron XAS/XES, NRVS 
  Peter Pinski           : DLPNO-MP2, DLPNO-MP2 Gradient                 
  Christoph Reimann      : Effective Core Potentials                     
  Marius Retegan         : Local ZFS, SOC                                
  Christoph Riplinger    : Optimizer, TS searches, QM/MM, DLPNO-CCSD(T), (RO)-DLPNO pert. Triples 
  Michael Roemelt        : Original ROCIS implementation                 
  Masaaki Saitow         : Open-shell DLPNO-CCSD energy and density      
  Barbara Sandhoefer     : DKH picture change effects                    
  Kantharuban Sivalingam : CASSCF convergence/infrastructure, NEVPT2 and variants, FIC-MRCI 
  Bernardo de Souza      : ESD, SOC TD-DFT                               
  Georgi L. Stoychev     : AutoAux, RI-MP2 NMR, DLPNO-MP2 response, X2C  
  Van Anh Tran           : RI-MP2 g-tensors                              
  Willem Van den Heuvel  : Paramagnetic NMR                              
  Zikuan Wang            : NOTCH, Electric field optimization            
  Frank Wennmohs         : Technical directorship and infrastructure     
  Hang Xu                : AUTO-CI-Response properties                   
                                                                         
[FACCTs GmbH]                                                            
  Markus Bursch, Miquel Garcia-Rates, Christoph Riplinger, Bernardo de Souza, Georgi L. Stoychev 
                                                                 
  APM, Basis sets (HGBS, AHGBS, def-TZVP (Ac-Lr), def2-XVPD (La-Lu)), CI-OPT, improved COSX, DLPNO-Multilevel,           
  DOCKER, DRACO, updates on ESD, GOAT, IRC, LR-CPCM, MBIS, meta-GGA TD-DFT gradient, ML-optimized integration grids, 
  MM, NACMEs, nearIR, NEB, NEB-TS, NL-DFT gradient (VV10), 2- and 3-layer-ONIOM, interface openCOSMO-RS, QMMM,   
  Crystal-QMMM, SF, symmetry and pop. for TD-DFT, r2SCAN hybrids, SOLVATOR                                   
                                                                         
[Other institutions]                                                     
  V. Asgeirsson          : NEB                                           
  Christoph Bannwarth    : sTDA-DFT, sTD-DFT, PBEh-3c, B97-3c, D3        
  Sebastian Ehlert       : rSCAN, r2SCAN, r2SCAN-3c, D4, dhf basis sets  
  Marvin Friede          : D4 for Fr, Ra, Ac-Lr                          
  Lars Goerigk           : TD-DFT with DH, B97 family of functionals     
  Stefan Grimme          : VdW corrections, initial TS optimization, DFT functionals, gCP, sTDA/sTD-DF 
  Waldemar Hujo          : DFT-NL                                        
  H. Jonsson             : NEB                                           
  Holger Kruse           : gCP                                           
  Marcel Mueller         : wB97X-3c, vDZP basis set                      
  Hagen Neugebauer       : wr2SCAN                                       
  Tobias Risthaus        : range-separated hybrid DFT                    
  Lukas Wittmann         : regularized MP2, r2SCAN double-hybrids, wr2SCAN        
                                                                         
We gratefully acknowledge several colleagues who have allowed us to      
interface, adapt or use parts of their codes:                            
  Ed Valeev, F. Pavosevic, A. Kumar             : LibInt (2-el integral package), F12 methods 
  Garnet Chan, S. Sharma, J. Yang, R. Olivares  : DMRG                   
  Ulf Ekstrom                                   : XCFun DFT Library      
  Mihaly Kallay                                 : mrcc  (arbitrary order and MRCC methods)
  Frank Weinhold                                : gennbo (NPA and NBO analysis)           
  Simon Mueller                                 : openCOSMO-RS                            
  Christopher J. Cramer and Donald G. Truhlar   : smd solvation model                     
  S Lehtola, MJT Oliveira, MAL Marques          : LibXC Library                           
  Liviu Ungur et al                             : ANISO software                          


 Your calculation uses the libint2 library for the computation of 2-el integrals
 For citations please refer to: http://libint.valeyev.net

 Your ORCA version has been built with support for libXC version: 6.2.2
 For citations please refer to: https://libxc.gitlab.io

 This ORCA versions uses:
   CBLAS   interface :  Fast vector & matrix operations
   LAPACKE interface :  Fast linear algebra routines
   SCALAPACK package :  Parallel linear algebra routines
   Shared memory     :  Shared parallel matrices
   BLAS/LAPACK       :  OpenBLAS 0.3.27  USE64BITINT DYNAMIC_ARCH NO_AFFINITY SkylakeX SINGLE_THREADED
        Core in use  :  SkylakeX
   Copyright (c) 2011-2014, The OpenBLAS Project


================================================================================

----- Orbital basis set information -----
Your calculation utilizes the basis: 6-31G*
   H-He, Li-Ne : W. J. Hehre, R. Ditchfield and J.A. Pople, J. Chem. Phys. 56, 2257 (1972).
                 Note: He and Ne are unpublished basis sets taken from the Gaussian program.
                 Note: Li and B from J. D. Dill and J. A. Pople, J. Chem. Phys. 62, 2921 (1975).
   Na - Ar     : M. M. Francl, W. J. Pietro, W. J. Hehre, J. S. Binkley, M. S. Gordon, 
                 D. J. DeFrees and J. A. Pople, J. Chem. Phys. 77, 3654 (1982).
   K - Zn      : V. A. Rassolov, J. A. Pople, M. A. Ratner, and T. L. Windus, J. Chem. Phys. 109, 1223 (1998).

================================================================================
                                        WARNINGS
                       Please study these warnings very carefully!
================================================================================


================================================================================
                                       INPUT FILE
================================================================================
NAME = frag.inp
|  1> !HF 6-31G* EnGrad
|  2> %pal nprocs 1 end
|  3> *xyz 0 1
|  4> O 21.31548000 47.19077000 40.87238000
|  5> H 22.11097000 46.98487000 41.16553000
|  6> H 20.96265000 46.41737000 40.67613000
|  7> O 24.10596000 46.93173000 41.50917000
|  8> H 24.52341000 46.31399000 41.96223000
|  9> H 24.52212000 47.66562000 41.73132000
| 10> O 19.10373000 45.58535000 40.48424000
| 11> H 18.38270000 45.25544000 40.12036000
| 12> H 18.82331000 45.89664000 41.24949000
| 13> O 22.25294000 44.28778000 39.87163000
| 14> H 22.68414000 43.83080000 40.47691000
| 15> H 22.81575000 44.91633000 39.64956000
| 16> *
| 17> 
| 18>                          ****END OF INPUT****
================================================================================

                     *******************************
                     * Energy+Gradient Calculation *
                     *******************************

---------------------------------
CARTESIAN COORDINATES (ANGSTROEM)
---------------------------------
  O     21.315480   47.190770   40.872380
  H     22.110970   46.984870   41.165530
  H     20.962650   46.417370   40.676130
  O     24.105960   46.931730   41.509170
  H     24.523410   46.313990   41.962230
  H     24.522120   47.665620   41.731320
  O     19.103730   45.585350   40.484240
  H     18.382700   45.255440   40.120360
  H     18.823310   45.896640   41.249490
  O     22.252940   44.287780   39.871630
  H     22.684140   43.830800   40.476910
  H     22.815750   44.916330   39.649560

----------------------------
CARTESIAN COORDINATES (A.U.)
----------------------------
  NO LB      ZA    FRAG     MASS         X           Y           Z
   0 O     8.0000    0    15.999   40.280420   89.177631   77.237605
   1 H     1.0000    0     1.008   41.783678   88.788537   77.791578
   2 H     1.0000    0     1.008   39.613668   87.716117   76.866746
   3 O     8.0000    0    15.999   45.553663   88.688117   78.440963
   4 H     1.0000    0     1.008   46.342529   87.520757   79.297123
   5 H     1.0000    0     1.008   46.340091   90.074968   78.860766
   6 O     8.0000    0    15.999   36.100818   86.143827   76.504126
   7 H     1.0000    0     1.008   34.738269   85.520388   75.816493
   8 H     1.0000    0     1.008   35.570901   86.732080   77.950239
   9 O     8.0000    0    15.999   42.051962   83.691775   75.346461
  10 H     1.0000    0     1.008   42.866812   82.828208   76.490275
  11 H     1.0000    0     1.008   43.115519   84.879563   74.926810

--------------------------------
INTERNAL COORDINATES (ANGSTROEM)
--------------------------------
 O      0   0   0     0.000000000000     0.00000000     0.00000000
 H      1   0   0     0.872431127712     0.00000000     0.00000000
 H      1   2   0     0.872439471482   103.59872274     0.00000000
 O      2   1   3     2.025067260439   164.04508453   134.49752923
 H      4   2   1     0.872427976225   125.31625843   188.06283548
 H      4   2   1     0.872430111929   119.41048032    51.16069882
 O      3   1   2     2.045644792944   138.51760024   155.95761940
 H      7   3   1     0.872429666735   160.72623553   104.87007073
 H      7   3   1     0.872435901944    93.70851241   310.81868034
 O      3   1   2     2.616719721751   126.24180712   329.77871731
 H     10   3   1     0.872426523439   117.17456234    76.98324549
 H     10   3   1     0.872436406565    79.04835924   337.20315741

---------------------------
INTERNAL COORDINATES (A.U.)
---------------------------
 O      0   0   0     0.000000000000     0.00000000     0.00000000
 H      1   0   0     1.648655902083     0.00000000     0.00000000
 H      1   2   0     1.648671669524   103.59872274     0.00000000
 O      2   1   3     3.826822524999   164.04508453   134.49752923
 H      4   2   1     1.648649946636   125.31625843   188.06283548
 H      4   2   1     1.648653982532   119.41048032    51.16069882
 O      3   1   2     3.865708425947   138.51760024   155.95761940
 H      7   3   1     1.648653141238   160.72623553   104.87007073
 H      7   3   1     1.648664924074    93.70851241   310.81868034
 O      3   1   2     4.944883643340   126.24180712   329.77871731
 H     10   3   1     1.648647201269   117.17456234    76.98324549
 H     10   3   1     1.648665877670    79.04835924   337.20315741

---------------------
BASIS SET INFORMATION
---------------------
There are 2 groups of distinct atoms

 Group   1 Type O   : 10s4p1d contracted to 3s2p1d pattern {631/31/1}
 Group   2 Type H   : 4s contracted to 2s pattern {31}

Atom   0O    basis set group =>   1
Atom   1H    basis set group =>   2
Atom   2H    basis set group =>   2
Atom   3O    basis set group =>   1
Atom   4H    basis set group =>   2
Atom   5H    basis set group =>   2
Atom   6O    basis set group =>   1
Atom   7H    basis set group =>   2
Atom   8H    basis set group =>   2
Atom   9O    basis set group =>   1
Atom  10H    basis set group =>   2
Atom  11H    basis set group =>   2
------------------------------------------------------------------------------
                             ORCA STARTUP CALCULATIONS
------------------------------------------------------------------------------
------------------------------------------------------------------------------
                   ___                                                        
                  /   \      - P O W E R E D   B Y -                         
                 /     \                                                     
                 |  |  |   _    _      __       _____    __    __             
                 |  |  |  | |  | |    /  \     |  _  \  |  |  /  |          
                  \  \/   | |  | |   /    \    | | | |  |  | /  /          
                 / \  \   | |__| |  /  /\  \   | |_| |  |  |/  /          
                |  |  |   |  __  | /  /__\  \  |    /   |      \           
                |  |  |   | |  | | |   __   |  |    \   |  |\   \          
                \     /   | |  | | |  |  |  |  | |\  \  |  | \   \       
                 \___/    |_|  |_| |__|  |__|  |_| \__\ |__|  \__/        
                                                                              
                      - O R C A' S   B I G   F R I E N D -                    
                                      &                                       
                       - I N T E G R A L  F E E D E R -                       
                                                                              
 v1 FN, 2020, v2 2021, v3 2022-2024                                           
------------------------------------------------------------------------------


----------------------
SHARK INTEGRAL PACKAGE
----------------------

Number of atoms                             ...     12
Number of basis functions                   ...     72
Number of shells                            ...     40
Maximum angular momentum                    ...      2
Integral batch strategy                     ... SHARK/LIBINT Hybrid
RI-J (if used) integral strategy            ... SPLIT-RIJ (Revised 2003 algorithm where possible)
Printlevel                                  ...      1
Contraction scheme used                     ... SEGMENTED contraction
Prescreening option                         ... SCHWARTZ
   Thresh                                   ... 2.500e-11
   Tcut                                     ... 2.500e-12
   Tpresel                                  ... 2.500e-12 
Coulomb Range Separation                    ... NOT USED
Exchange Range Separation                   ... NOT USED
Multipole approximations                    ... NOT USED
Finite Nucleus Model                        ... NOT USED
CABS basis                                  ... NOT available
Auxiliary Coulomb fitting basis             ... NOT available
Auxiliary J/K fitting basis                 ... NOT available
Auxiliary Correlation fitting basis         ... NOT available
Auxiliary 'external' fitting basis          ... NOT available

Checking pre-screening integrals            ... done (  0.0 sec) Dimension = 40
Check shell pair data                       ... done (  0.0 sec)
Shell pair information
Shell pair cut-off parameter TPreSel        ...   2.5e-12
Total number of shell pairs                 ...       820
Shell pairs after pre-screening             ...       749
Total number of primitive shell pairs       ...      4386
Primitive shell pairs kept                  ...      2630
          la=0 lb=0:    366 shell pairs
          la=1 lb=0:    209 shell pairs
          la=1 lb=1:     35 shell pairs
          la=2 lb=0:    100 shell pairs
          la=2 lb=1:     30 shell pairs
          la=2 lb=2:      9 shell pairs

Calculating one electron integrals          ... done (  0.0 sec)
Calculating Nuclear repulsion               ... done (  0.0 sec) ENN=    133.351417485700 Eh

Diagonalization of the overlap matrix:
Smallest eigenvalue                        ... 3.207e-02
Time for diagonalization                   ...    0.001 sec
Threshold for overlap eigenvalues          ... 1.000e-07
Number of eigenvalues below threshold      ... 0
Time for construction of square roots      ...    0.005 sec
Total time needed                          ...    0.009 sec

-------------------
DFT GRID GENERATION
-------------------

General Integration Accuracy     IntAcc      ... 4.388
Radial Grid Type                 RadialGrid  ... OptM3 with GC (2021)
Angular Grid (max. ang.)         AngularGrid ... 4 (Lebedev-302)
Angular grid pruning method      GridPruning ... 4 (adaptive)
Weight generation scheme         WeightScheme... mBecke (2022)
Basis function cutoff            BFCut       ... 1.0000e-11
Integration weight cutoff        WCut        ... 1.0000e-14
Partially contracted basis set               ... off
Rotationally invariant grid construction     ... off
Angular grids for H and He will be reduced by one unit

Total number of grid points                  ...    50691
Total number of batches                      ...      798
Average number of points per batch           ...       63
Average number of grid points per atom       ...     4224
Initializing property integral containers    ... done (  0.0 sec)

SHARK setup successfully completed in   0.5 seconds

Maximum memory used throughout the entire STARTUP-calculation: 17.5 MB
-------------------------------------------------------------------------------
                                 ORCA GUESS
                   Start orbitals & Density for SCF / CASSCF
-------------------------------------------------------------------------------

------------
SCF SETTINGS
------------
Hamiltonian:
 Ab initio Hamiltonian  Method          .... Hartree-Fock(GTOs)


General Settings:
 Integral files         IntName         .... frag
 Hartree-Fock type      HFTyp           .... RHF
 Total Charge           Charge          ....    0
 Multiplicity           Mult            ....    1
 Number of Electrons    NEL             ....   40
 Basis Dimension        Dim             ....   72
 Nuclear Repulsion      ENuc            ....    133.3514174857 Eh

Convergence Acceleration:
 AO-DIIS                CNVDIIS         .... on
   Start iteration      DIISMaxIt       ....    12
   Startup error        DIISStart       ....  0.200000
   # of expansion vecs  DIISMaxEq       ....     5
   Bias factor          DIISBfac        ....   1.050
   Max. coefficient     DIISMaxC        ....  10.000
 MO-DIIS                CNVKDIIS        .... off
 Trust-Rad. Augm. Hess. CNVTRAH         .... auto
   Auto Start mean grad. ratio tolernc. ....  1.125000
   Auto Start start iteration           ....    50
   Auto Start num. interpolation iter.  ....    10
   Max. Number of Micro iterations      ....    24
   Max. Number of Macro iterations      .... Maxiter - #DIIS iter
   Number of Davidson start vectors     ....     2
   Converg. threshold    (grad. norm)   ....   1.000e-05
   Grad. Scal. Fac. for Micro threshold ....   0.100
   Minimum threshold for Micro iter.    ....   1.000e-02
   NR start threshold (gradient norm)   ....   1.000e-04
   Initial trust radius                 ....   0.400
   Minimum AH scaling param. (alpha)    ....   1.000
   Maximum AH scaling param. (alpha)    .... 1000.000
   Quad. conv. algorithm                .... NR
   White noise on init. David. guess    .... on
   Maximum white noise                  ....   0.010
   Pseudo random numbers                .... off
   Inactive MOs                         .... canonical
   Orbital update algorithm             .... Taylor
   Preconditioner                       .... Diag
   Full preconditioner red. dimension   ....   250
 SOSCF                  CNVSOSCF        .... on
   Start iteration      SOSCFMaxIt      ....   150
   Startup grad/error   SOSCFStart      ....  0.003300
   Hessian update       SOSCFHessUp     .... L-BFGS
 Level Shifting         CNVShift        .... on
   Level shift para.    LevelShift      ....    0.2500
   Turn off err/grad.   ShiftErr        ....    0.0010
 Zerner damping         CNVZerner       .... off
 Static damping         CNVDamp         .... on
   Fraction old density DampFac         ....    0.7000
   Max. Damping (<1)    DampMax         ....    0.9800
   Min. Damping (>=0)   DampMin         ....    0.0000
   Turn off err/grad.   DampErr         ....    0.1000

SCF Procedure:
 Maximum # iterations   MaxIter         ....   125
 SCF integral mode      SCFMode         .... Direct
   Integral package                     .... SHARK and LIBINT hybrid scheme
 Reset frequency        DirectResetFreq ....    20
 Integral Threshold     Thresh          ....  2.500e-11 Eh
 Primitive CutOff       TCut            ....  2.500e-12 Eh

Convergence Tolerance:
 Convergence Check Mode ConvCheckMode   .... Total+1el-Energy
 Convergence forced     ConvForced      .... 0
 Energy Change          TolE            ....  1.000e-08 Eh
 1-El. energy change                    ....  1.000e-05 Eh
 Orbital Gradient       TolG            ....  1.000e-05
 Orbital Rotation angle TolX            ....  1.000e-05
 DIIS Error             TolErr          ....  5.000e-07

------------------------------
INITIAL GUESS: MODEL POTENTIAL
------------------------------
Loading Hartree-Fock densities                     ... done
Calculating cut-offs                               ... done
Initializing the effective Hamiltonian             ... done
Setting up the integral package (SHARK)            ... done
Starting the Coulomb interaction                   ... done (   0.0 sec)
Making the grid                                    ... done (   0.1 sec)
Mapping shells                                     ... done
Starting the XC term evaluation                    ... done (   0.0 sec)
Transforming the Hamiltonian                       ... done (   0.0 sec)
Diagonalizing the Hamiltonian                      ... done (   0.0 sec)
Back transforming the eigenvectors                 ... done (   0.0 sec)
Now organizing SCF variables                       ... done
                      ------------------
                      INITIAL GUESS DONE (   0.2 sec)
                      ------------------
             **** ENERGY FILE WAS UPDATED (frag.en.tmp) ****
Finished Guess after   0.2 sec
Maximum memory used throughout the entire GUESS-calculation: 7.5 MB

-------------------------------------------------------------------------------------------
                                      ORCA LEAN-SCF
                              memory conserving SCF solver
-------------------------------------------------------------------------------------------

----------------------------------------D-I-I-S--------------------------------------------
Iteration    Energy (Eh)           Delta-E    RMSDP     MaxDP     DIISErr   Damp  Time(sec)
-------------------------------------------------------------------------------------------
               ***  Starting incremental Fock matrix formation  ***
    1    -303.5939897276613237     0.00e+00  6.13e-03  7.40e-02  3.25e-01  0.700   0.3
    2    -303.7472063484732416    -1.53e-01  4.17e-03  5.12e-02  1.97e-01  0.700   0.2
                               ***Turning on AO-DIIS***
    3    -303.8303284351488855    -8.31e-02  1.68e-03  2.12e-02  1.09e-01  0.700   0.2
    4    -303.8806861920378424    -5.04e-02  1.04e-03  1.36e-02  7.42e-02  0.700   0.2
    5    -303.9140179015892045    -3.33e-02  2.46e-03  3.26e-02  5.30e-02  0.000   0.2
    6    -303.9885069346170212    -7.45e-02  2.04e-04  2.47e-03  3.41e-03  0.000   0.2
                              *** Initializing SOSCF ***
---------------------------------------S-O-S-C-F--------------------------------------
Iteration    Energy (Eh)           Delta-E    RMSDP     MaxDP     MaxGrad    Time(sec)
--------------------------------------------------------------------------------------
    7    -303.9885778929742628    -7.10e-05  1.19e-04  1.20e-03  1.16e-03     0.2
               *** Restarting incremental Fock matrix formation ***
    8    -303.9885919078431016    -1.40e-05  4.93e-05  5.32e-04  2.85e-04     0.2
    9    -303.9885933563907656    -1.45e-06  2.99e-05  2.46e-04  9.95e-05     0.2
   10    -303.9885936112618765    -2.55e-07  3.87e-06  5.83e-05  2.94e-05     0.2
   11    -303.9885936250653913    -1.38e-08  9.96e-07  1.14e-05  7.11e-06     0.1
   12    -303.9885936257152252    -6.50e-10  2.19e-07  2.90e-06  9.96e-07     0.1
                 **** Energy Check signals convergence ****

               *****************************************************
               *                     SUCCESS                       *
               *           SCF CONVERGED AFTER  12 CYCLES          *
               *****************************************************

             **** ENERGY FILE WAS UPDATED (frag.en.tmp) ****

----------------
TOTAL SCF ENERGY
----------------

Total Energy       :       -303.98859362571523 Eh           -8271.95017 eV

Components:
Nuclear Repulsion  :        133.35141748569995 Eh            3628.67655 eV
Electronic Energy  :       -437.34001111141521 Eh          -11900.62672 eV
One Electron Energy:       -684.92071449053662 Eh          -18637.64016 eV
Two Electron Energy:        247.58070337912142 Eh            6737.01344 eV

Virial components:
Potential Energy   :       -609.54296758552596 Eh          -16586.50739 eV
Kinetic Energy     :        305.55437395981073 Eh            8314.55722 eV
Virial Ratio       :          1.99487560818127

---------------
SCF CONVERGENCE
---------------

  Last Energy change         ...    6.4983e-10  Tolerance :   1.0000e-08
  Last MAX-Density change    ...    2.8997e-06  Tolerance :   1.0000e-07
  Last RMS-Density change    ...    2.1916e-07  Tolerance :   5.0000e-09
  Last DIIS Error            ...    1.1588e-03  Tolerance :   5.0000e-07
  Last Orbital Gradient      ...    9.9608e-07  Tolerance :   1.0000e-05
  Last Orbital Rotation      ...    1.0423e-06  Tolerance :   1.0000e-05


----------------
ORBITAL ENERGIES
----------------

  NO   OCC          E(Eh)            E(eV) 
   0   2.0000     -20.567700      -559.6756 
   1   2.0000     -20.530851      -558.6729 
   2   2.0000     -20.529553      -558.6375 
   3   2.0000     -20.472474      -557.0843 
   4   2.0000      -1.421174       -38.6721 
   5   2.0000      -1.384735       -37.6806 
   6   2.0000      -1.383895       -37.6577 
   7   2.0000      -1.328990       -36.1637 
   8   2.0000      -0.783218       -21.3124 
   9   2.0000      -0.749080       -20.3835 
  10   2.0000      -0.746633       -20.3169 
  11   2.0000      -0.700581       -19.0638 
  12   2.0000      -0.619657       -16.8617 
  13   2.0000      -0.583757       -15.8848 
  14   2.0000      -0.575745       -15.6668 
  15   2.0000      -0.538311       -14.6482 
  16   2.0000      -0.526853       -14.3364 
  17   2.0000      -0.497062       -13.5258 
  18   2.0000      -0.494510       -13.4563 
  19   2.0000      -0.444876       -12.1057 
  20   0.0000       0.193431         5.2635 
  21   0.0000       0.241722         6.5776 
  22   0.0000       0.257806         7.0152 
  23   0.0000       0.307551         8.3689 
  24   0.0000       0.336173         9.1477 
  25   0.0000       0.339361         9.2345 
  26   0.0000       0.399869        10.8810 
  27   0.0000       0.506061        13.7706 
  28   0.0000       1.011880        27.5347 
  29   0.0000       1.033247        28.1161 
  30   0.0000       1.069697        29.1079 
*Only the first 10 virtual orbitals were printed.

                    ********************************
                    * MULLIKEN POPULATION ANALYSIS *
                    ********************************

-----------------------
MULLIKEN ATOMIC CHARGES
-----------------------
   0 O :   -0.988505
   1 H :    0.474789
   2 H :    0.488916
   3 O :   -0.891124
   4 H :    0.448204
   5 H :    0.458155
   6 O :   -0.886405
   7 H :    0.446540
   8 H :    0.446789
   9 O :   -0.885092
  10 H :    0.437563
  11 H :    0.450169
Sum of atomic charges:    0.0000000

--------------------------------
MULLIKEN REDUCED ORBITAL CHARGES
--------------------------------
  0 O s       :     3.866988  s :     3.866988
      pz      :     1.910479  p :     5.088794
      px      :     1.526655
      py      :     1.651661
      dz2     :     0.004459  d :     0.032723
      dxz     :     0.003149
      dyz     :     0.003809
      dx2y2   :     0.012687
      dxy     :     0.008618

  1 H s       :     0.525211  s :     0.525211

  2 H s       :     0.511084  s :     0.511084

  3 O s       :     3.843698  s :     3.843698
      pz      :     1.849405  p :     5.015076
      px      :     1.792417
      py      :     1.373254
      dz2     :     0.003043  d :     0.032350
      dxz     :     0.006708
      dyz     :     0.008452
      dx2y2   :     0.000809
      dxy     :     0.013338

  4 H s       :     0.551796  s :     0.551796

  5 H s       :     0.541845  s :     0.541845

  6 O s       :     3.845950  s :     3.845950
      pz      :     1.510750  p :     5.007327
      px      :     1.640018
      py      :     1.856558
      dz2     :     0.006857  d :     0.033127
      dxz     :     0.010695
      dyz     :     0.002567
      dx2y2   :     0.006111
      dxy     :     0.006897

  7 H s       :     0.553460  s :     0.553460

  8 H s       :     0.553211  s :     0.553211

  9 O s       :     3.849613  s :     3.849613
      pz      :     1.711641  p :     5.001646
      px      :     1.706361
      py      :     1.583644
      dz2     :     0.004607  d :     0.033833
      dxz     :     0.009662
      dyz     :     0.002886
      dx2y2   :     0.001811
      dxy     :     0.014868

 10 H s       :     0.562437  s :     0.562437

 11 H s       :     0.549831  s :     0.549831



                     *******************************
                     * LOEWDIN POPULATION ANALYSIS *
                     *******************************

----------------------
LOEWDIN ATOMIC CHARGES
----------------------
   0 O :   -0.658850
   1 H :    0.296857
   2 H :    0.307201
   3 O :   -0.606651
   4 H :    0.315277
   5 H :    0.322055
   6 O :   -0.609051
   7 H :    0.313833
   8 H :    0.315106
   9 O :   -0.619445
  10 H :    0.309596
  11 H :    0.314072

-------------------------------
LOEWDIN REDUCED ORBITAL CHARGES
-------------------------------
  0 O s       :     3.542046  s :     3.542046
      pz      :     1.911579  p :     5.076953
      px      :     1.513454
      py      :     1.651920
      dz2     :     0.004886  d :     0.039850
      dxz     :     0.003955
      dyz     :     0.004373
      dx2y2   :     0.015827
      dxy     :     0.010811

  1 H s       :     0.703143  s :     0.703143

  2 H s       :     0.692799  s :     0.692799

  3 O s       :     3.548419  s :     3.548419
      pz      :     1.855779  p :     5.017262
      px      :     1.790358
      py      :     1.371125
      dz2     :     0.003637  d :     0.040970
      dxz     :     0.007175
      dyz     :     0.011074
      dx2y2   :     0.001724
      dxy     :     0.017360

  4 H s       :     0.684723  s :     0.684723

  5 H s       :     0.677945  s :     0.677945

  6 O s       :     3.551817  s :     3.551817
      pz      :     1.514222  p :     5.015111
      px      :     1.646517
      py      :     1.854371
      dz2     :     0.009235  d :     0.042123
      dxz     :     0.013707
      dyz     :     0.003691
      dx2y2   :     0.006920
      dxy     :     0.008569

  7 H s       :     0.686167  s :     0.686167

  8 H s       :     0.684894  s :     0.684894

  9 O s       :     3.556283  s :     3.556283
      pz      :     1.716586  p :     5.020497
      px      :     1.721214
      py      :     1.582697
      dz2     :     0.005586  d :     0.042664
      dxz     :     0.011745
      dyz     :     0.004495
      dx2y2   :     0.001881
      dxy     :     0.018956

 10 H s       :     0.690404  s :     0.690404

 11 H s       :     0.685928  s :     0.685928



                      *****************************
                      * MAYER POPULATION ANALYSIS *
                      *****************************

  NA   - Mulliken gross atomic population
  ZA   - Total nuclear charge
  QA   - Mulliken gross atomic charge
  VA   - Mayer's total valence
  BVA  - Mayer's bonded valence
  FA   - Mayer's free valence

  ATOM       NA         ZA         QA         VA         BVA        FA
  0 O      8.9885     8.0000    -0.9885     1.4585     1.4585     0.0000
  1 H      0.5252     1.0000     0.4748     0.7577     0.7577    -0.0000
  2 H      0.5111     1.0000     0.4889     0.7428     0.7428    -0.0000
  3 O      8.8911     8.0000    -0.8911     1.5743     1.5743     0.0000
  4 H      0.5518     1.0000     0.4482     0.7638     0.7638    -0.0000
  5 H      0.5418     1.0000     0.4582     0.7573     0.7573    -0.0000
  6 O      8.8864     8.0000    -0.8864     1.5696     1.5696     0.0000
  7 H      0.5535     1.0000     0.4465     0.7663     0.7663     0.0000
  8 H      0.5532     1.0000     0.4468     0.7653     0.7653     0.0000
  9 O      8.8851     8.0000    -0.8851     1.5638     1.5638     0.0000
 10 H      0.5624     1.0000     0.4376     0.7717     0.7717    -0.0000
 11 H      0.5498     1.0000     0.4502     0.7674     0.7674     0.0000

  Mayer bond orders larger than 0.100000
B(  0-O ,  1-H ) :   0.7277 B(  0-O ,  2-H ) :   0.7152 B(  3-O ,  4-H ) :   0.7713 
B(  3-O ,  5-H ) :   0.7651 B(  6-O ,  7-H ) :   0.7744 B(  6-O ,  8-H ) :   0.7706 
B(  9-O , 10-H ) :   0.7804 B(  9-O , 11-H ) :   0.7647 

-------
TIMINGS
-------

Total SCF time: 0 days 0 hours 0 min 2 sec 

Total time                  ....       2.351 sec
Sum of individual times     ....       2.277 sec  ( 96.8%)

SCF preparation             ....       0.063 sec  (  2.7%)
Fock matrix formation       ....       1.938 sec  ( 82.4%)
  Startup                   ....       0.036 sec  (  1.9% of F)
  Coulomb+Exchange Fock     ....       1.820 sec  ( 93.9% of F)
Diagonalization             ....       0.000 sec  (  0.0%)
Density matrix formation    ....       0.092 sec  (  3.9%)
Total Energy calculation    ....       0.016 sec  (  0.7%)
Population analysis         ....       0.018 sec  (  0.8%)
Orbital Transformation      ....       0.013 sec  (  0.6%)
Orbital Orthonormalization  ....       0.000 sec  (  0.0%)
DIIS solution               ....       0.095 sec  (  4.0%)
SOSCF solution              ....       0.041 sec  (  1.7%)
Finished LeanSCF after   2.4 sec

Maximum memory used throughout the entire LEANSCF-calculation: 8.4 MB

-------------------------   --------------------
FINAL SINGLE POINT ENERGY      -303.988593625715
-------------------------   --------------------

------------------------------------------------------------------------------
                         ORCA SCF GRADIENT CALCULATION
------------------------------------------------------------------------------

Nuc. rep. gradient        (SHARK) ... done (  0.0 sec)
HCore & Overlap gradient  (SHARK) ... done (  0.0 sec)
Two-electron gradient     (SHARK) ... done (  0.6 sec)

------------------
CARTESIAN GRADIENT
------------------

   1   O   :    0.049927638   -0.115032796    0.007214772
   2   H   :   -0.105616142    0.015352935   -0.038684909
   3   H   :    0.055758425    0.096459768    0.033092853
   4   O   :    0.092770166    0.018274764    0.077526443
   5   H   :   -0.048882639    0.086194172   -0.056248720
   6   H   :   -0.047116102   -0.102189355   -0.022195824
   7   O   :   -0.109963249    0.001415075    0.044347781
   8   H   :    0.087115227    0.045926156    0.056008528
   9   H   :    0.027177415   -0.045432513   -0.101012240
  10   O   :    0.113032031    0.021104710    0.043106922
  11   H   :   -0.047961272    0.064902437   -0.078768844
  12   H   :   -0.066241498   -0.086975353    0.035613239

Difference to translation invariance:
           :   -0.0000000000    0.0000000000    0.0000000000

Difference to rotation invariance:
           :   -0.0000001083    0.0000001481   -0.0000000678

Norm of the Cartesian gradient     ...    0.4051934695
RMS gradient                       ...    0.0675322449
MAX gradient                       ...    0.1150327964

-------
TIMINGS
-------

Total SCF gradient time     ....        0.639 sec

Densities                   ....       0.000 sec  (  0.0%)
One electron gradient       ....       0.038 sec  (  5.9%)
Two electron gradient       ....       0.601 sec  ( 94.1%)

Maximum memory used throughout the entire SCFGRAD-calculation: 14.2 MB

------------------------------------------------------------------------------
                              ORCA PROPERTY CALCULATIONS
------------------------------------------------------------------------------

GBWName                                 ... frag.gbw
Number of atoms                         ...     12
Number of basis functions               ...     72
Max core memory                         ...   1024 MB

Electric properties:
Dipole moment                           ... YES
Quadrupole moment                       ...  NO
Static polarizability (Dipole/Dipole)   ...  NO
Static polarizability (Dipole/Quad.)    ...  NO
Static polarizability (Quad./Quad.)     ...  NO
Static polarizability (Velocity)        ...  NO

Atomic electric properties:
Dipole moment                           ...  NO
Quadrupole moment                       ...  NO
Static polarizability                   ...  NO

Choice of electric origin               ... Center of mass
Position of electric origin             ...    41.030256    86.906564    76.923439

General magnetic properties:
Magnetizability                         ...  NO

EPR properties:
g-Tensor (aka g-matrix)                 ...  NO
Zero-Field splitting spin-orbit         ...  NO
Zero-field splitting spin-spin          ...  NO
Hyperfine couplings                     ...  NO (   0 nuclei)
Quadrupole couplings                    ...  NO (   0 nuclei)
Contact density                         ...  NO (   0 nuclei)

NMR properties:
Chemical shifts                         ...  NO (   0 nuclei)
Spin-rotation constants                 ...  NO (   0 nuclei)
Spin-spin couplings                     ...  NO (   0 nuclei,    0 pairs)

Choice of magnetic origin               ... GIAO
Position of magnetic origin             ...     0.000000     0.000000     0.000000

Properties with geometric perturbations:
SCF Hessian                             ...  NO
IR spectrum                             ...  NO
VCD spectrum                            ...  NO
X-ray spectroscopy properties:
SCF XES/XAS/RIXS spectra                ...  NO


-------------
DIPOLE MOMENT
-------------

Method             : SCF
Type of density    : Electron Density
Multiplicity       :   1
Irrep              :   0
Energy             :  -303.9885936257152252 Eh
Relativity type    : 
Basis              : AO
                                X                 Y                 Z
Electronic contribution:     -0.000348524      -0.018631076      -0.088922783
Nuclear contribution   :      1.056124147      -0.591142524       1.295727480
                        -----------------------------------------
Total Dipole Moment    :      1.055775623      -0.609773600       1.206804697
                        -----------------------------------------
Magnitude (a.u.)       :      1.715477655
Magnitude (Debye)      :      4.360397674



--------------------
Rotational spectrum 
--------------------
 
Rotational constants in cm-1:             0.157995             0.062878             0.046087 
Rotational constants in MHz :          4736.565101          1885.020861          1381.655681 

Dipole components along the rotational axes: 
x,y,z [a.u.] :     1.082025     0.429103     1.260142 
x,y,z [Debye]:     2.750288     1.090694     3.203025 

 

Dipole moment calculation done in   0.0 sec 

Maximum memory used throughout the entire PROP-calculation: 2.9 MB

--------------------------------
SUGGESTED CITATIONS FOR THIS RUN
--------------------------------

Below you find a list of papers that are relevant to this ORCA run
We neither can nor want to force you to cite these papers, but we appreciate if you do
You receive ORCA, which is the product of decades of hard work by many enthusiastic individuals, for free
The only thing we kindly ask in return is that you cite our papers,
We deeply appreciate it, if you show your appreciation for ORCA by not just citing the generic ORCA reference.

Please note that relegating all ORCA citations to the supporting information does *not* help us.
SI sections are not indexed - citations you put there will not count into any citation statistics
But we need these citations in order to attract the funding resources that allow us to do what we are doing

Therefore, if you are a happy ORCA user, please consider citing a few of the papers listed below in the main body of your paper

In addition to the list printed below, the program has created the file frag.bibtex that contains the list in bibtex format
You can import this file easily into all common literature databanks and citation aid programs


List of essential papers. We consider these as the minimum necessary citations

  1. Neese,F.
     Software update: the ORCA program system, version 5.0
     WIRES Comput. Molec. Sci., 2022 12(1)e1606
     doi.org/10.1002/wcms.1606

List of papers to cite with high priority. The work reported in these papers was absolutely
necessary for this run to complete.
Our perspective: the developers of density functionals and basis sets usually get cited in chemistry papers
Good! But without the algorithms to do something with them, the functionals or basis sets would not do anything.
Hence, in our opinion, the algorithm design and method developments papers are equally worthy of getting cited

  1. Neese,F.
     The SHARK Integral Generation and Digestion System
     J. Comp. Chem., 2022  1-16
     doi.org/10.1002/jcc.26942

List of suggested additional citations. These are papers that are important in the 'surrounding' of 
of this run, or papers that preceded the highly important papers. If you like your results we are grateful for a citation.

  1. Neese,F.
     The ORCA program system
     WIRES Comput. Molec. Sci., 2012 2(1)73-78
     doi.org/10.1002/wcms.81
  2. Neese,F.
     Software update: the ORCA program system, version 4.0
     WIRES Comput. Molec. Sci., 2018 8(1)1-6
     doi.org/10.1002/wcms.1327
  3. Neese,F.; Wennmohs,F.; Becker,U.; Riplinger,C.
     The ORCA quantum chemistry program package
     J. Chem. Phys., 2020 152 Art. No. L224108
     doi.org/10.1063/5.0004608

List of optional additional citations

  1. Neese,F.
     Approximate second-order SCF convergence for spin unrestricted wavefunctions
     Chem. Phys. Lett., 2000 325(1-3)93-98
     doi.org/10.1016/s0009-2614(00)00662-x

Timings for individual modules:

Sum of individual times          ...        3.914 sec (=   0.065 min)
Startup calculation              ...        0.516 sec (=   0.009 min)  13.2 %
SCF iterations                   ...        2.642 sec (=   0.044 min)  67.5 %
Property calculations            ...        0.055 sec (=   0.001 min)   1.4 %
SCF Gradient evaluation          ...        0.702 sec (=   0.012 min)  17.9 %
                             ****ORCA TERMINATED NORMALLY****
TOTAL RUN TIME: 0 days 0 hours 0 minutes 4 seconds 117 msec
