
                                 *****************
                                 * O   R   C   A *
                                 *****************

                                            #,                                       
                                            ###                                      
                                            ####                                     
                                            #####                                    
                                            ######                                   
                                           ########,                                 
                                     ,,################,,,,,                         
                               ,,#################################,,                 
                          ,,##########################################,,             
                       ,#########################################, ''#####,          
                    ,#############################################,,   '####,        
                  ,##################################################,,,,####,       
                ,###########''''           ''''###############################       
              ,#####''   ,,,,##########,,,,          '''####'''          '####       
            ,##' ,,,,###########################,,,                        '##       
           ' ,,###''''                  '''############,,,                           
         ,,##''                                '''############,,,,        ,,,,,,###''
      ,#''                                            '''#######################'''  
     '                                                          ''''####''''         
             ,#######,   #######,   ,#######,      ##                                
            ,#'     '#,  ##    ##  ,#'     '#,    #''#        ,####,   ,####,        
            ##       ##  ##   ,#'  ##            #'  '#       #'       #'  '#        
            ##       ##  #######   ##           ,######,      #####,   #    #        
            '#,     ,#'  ##    ##  '#,     ,#' ,#      #,     #,   #   #,  ,#        
             '#######'   ##     ##  '#######'  #'      '#     '####' # '####'        



                #########################################################
                #                        -***-                          #
                #          Department of theory and spectroscopy        #
                #                                                       #
                #                      Frank Neese                      #
                #                                                       #
                #     Directorship, Architecture, Infrastructure        #
                #                    SHARK, DRIVERS                     #
                #        Core code/Algorithms in most modules           #
                #                                                       #
                #        Max Planck Institute fuer Kohlenforschung      #
                #                Kaiser Wilhelm Platz 1                 #
                #                 D-45470 Muelheim/Ruhr                 #
                #                      Germany                          #
                #                                                       #
                #                  All rights reserved                  #
                #                        -***-                          #
                #########################################################


                         Program Version 6.0.1  -  RELEASE   -


 With contributions from (in alphabetic order):
[Max-Planck-Institut fuer Kohlenforschung]                               
  Daniel Aravena         : Magnetic Suceptibility                        
  Michael Atanasov       : Ab Initio Ligand Field Theory (pilot matlab implementation)
  Alexander A. Auer      : GIAO ZORA, VPT2 properties, NMR spectrum      
  Ute Becker             : All parallelization in ORCA, NUMFREQ, NUMCALC 
  Giovanni Bistoni       : ED, misc. LED, open-shell LED, HFLD           
  Martin Brehm           : Molecular dynamics                            
  Dmytro Bykov           : pre 5.0 version of the SCF Hessian            
  Marcos Casanova-Páez   : Triplet and SCS-CIS(D). UHF-(DLPNO)-IP/EA/STEOM-CCSD. UHF-CVS-IP/STEOM-CCSD   
  Vijay G. Chilkuri      : MRCI spin determinant printing, contributions to CSF-ICE 
  Pauline Colinet        : FMM embedding                                 
  Dipayan Datta          : RHF DLPNO-CCSD density                        
  Achintya Kumar Dutta   : EOM-CC, STEOM-CC                              
  Nicolas Foglia         : Exact transition moments, OPA infrastructure, MCD improvements    
  Dmitry Ganyushin       : Spin-Orbit,Spin-Spin,Magnetic field MRCI      
  Miquel Garcia-Rates    : C-PCM and meta-GGA Hessian, CCSD/C-PCM, Gaussian charge scheme 
  Tiago L. C. Gouveia    : GS-ROHF, GS-ROCIS                             
  Yang Guo               : DLPNO-NEVPT2, F12-NEVPT2, CIM, IAO-localization        
  Andreas Hansen         : Spin unrestricted coupled pair/coupled cluster methods 
  Ingolf Harden          : AUTO-CI MPn and infrastructure                
  Benjamin Helmich-Paris : MC-RPA, TRAH-(SCF,CASSCF), AVAS, COSX integrals, SCF dyn. polar. 
  Lee Huntington         : MR-EOM, pCC                                   
  Robert Izsak           : Overlap fitted RIJCOSX, COSX-SCS-MP3, EOM     
  Riya Kayal             : Wick's Theorem for AUTO-CI, AUTO-CI UHF-CCSDT 
  Emily Kempfer          : AUTO-CI, RHF CISDT and CCSDT                  
  Christian Kollmar      : KDIIS, OOCD, Brueckner-CCSD(T), CCSD density, CASPT2, CASPT2-K, improved NEVPT2 
  Axel Koslowski         : Symmetry handling                             
  Simone Kossmann        : meta-GGA functionals, TD-DFT gradient, OOMP2, (MP2 Hessian; deprecated post 5.0) 
  Lucas Lang             : DCDCAS                                        
  Marvin Lechner         : AUTO-CI (C++ implementation), FIC-MRCC        
  Spencer Leger          : CASSCF response                               
  Dagmar Lenk            : GEPOL surface, SMD, ORCA-2-JSON               
  Dimitrios Liakos       : Extrapolation schemes; Compound Job, initial MDCI parallelization 
  Dimitrios Manganas     : Further ROCIS development; embedding schemes. LFT, Crystal Embedding 
  Dimitrios Pantazis     : SARC Basis sets                               
  Anastasios Papadopoulos: AUTO-CI, single reference methods and gradients 
  Taras Petrenko         : pre 6.0 DFT Hessian and TD-DFT gradient, (ASA, deprecated), ECA, 1-Electron XAS/XES, NRVS 
  Peter Pinski           : DLPNO-MP2, DLPNO-MP2 Gradient                 
  Christoph Reimann      : Effective Core Potentials                     
  Marius Retegan         : Local ZFS, SOC                                
  Christoph Riplinger    : Optimizer, TS searches, QM/MM, DLPNO-CCSD(T), (RO)-DLPNO pert. Triples 
  Michael Roemelt        : Original ROCIS implementation                 
  Masaaki Saitow         : Open-shell DLPNO-CCSD energy and density      
  Barbara Sandhoefer     : DKH picture change effects                    
  Kantharuban Sivalingam : CASSCF convergence/infrastructure, NEVPT2 and variants, FIC-MRCI 
  Bernardo de Souza      : ESD, SOC TD-DFT                               
  Georgi L. Stoychev     : AutoAux, RI-MP2 NMR, DLPNO-MP2 response, X2C  
  Van Anh Tran           : RI-MP2 g-tensors                              
  Willem Van den Heuvel  : Paramagnetic NMR                              
  Zikuan Wang            : NOTCH, Electric field optimization            
  Frank Wennmohs         : Technical directorship and infrastructure     
  Hang Xu                : AUTO-CI-Response properties                   
                                                                         
[FACCTs GmbH]                                                            
  Markus Bursch, Miquel Garcia-Rates, Christoph Riplinger, Bernardo de Souza, Georgi L. Stoychev 
                                                                 
  APM, Basis sets (HGBS, AHGBS, def-TZVP (Ac-Lr), def2-XVPD (La-Lu)), CI-OPT, improved COSX, DLPNO-Multilevel,           
  DOCKER, DRACO, updates on ESD, GOAT, IRC, LR-CPCM, MBIS, meta-GGA TD-DFT gradient, ML-optimized integration grids, 
  MM, NACMEs, nearIR, NEB, NEB-TS, NL-DFT gradient (VV10), 2- and 3-layer-ONIOM, interface openCOSMO-RS, QMMM,   
  Crystal-QMMM, SF, symmetry and pop. for TD-DFT, r2SCAN hybrids, SOLVATOR                                   
                                                                         
[Other institutions]                                                     
  V. Asgeirsson          : NEB                                           
  Christoph Bannwarth    : sTDA-DFT, sTD-DFT, PBEh-3c, B97-3c, D3        
  Sebastian Ehlert       : rSCAN, r2SCAN, r2SCAN-3c, D4, dhf basis sets  
  Marvin Friede          : D4 for Fr, Ra, Ac-Lr                          
  Lars Goerigk           : TD-DFT with DH, B97 family of functionals     
  Stefan Grimme          : VdW corrections, initial TS optimization, DFT functionals, gCP, sTDA/sTD-DF 
  Waldemar Hujo          : DFT-NL                                        
  H. Jonsson             : NEB                                           
  Holger Kruse           : gCP                                           
  Marcel Mueller         : wB97X-3c, vDZP basis set                      
  Hagen Neugebauer       : wr2SCAN                                       
  Tobias Risthaus        : range-separated hybrid DFT                    
  Lukas Wittmann         : regularized MP2, r2SCAN double-hybrids, wr2SCAN        
                                                                         
We gratefully acknowledge several colleagues who have allowed us to      
interface, adapt or use parts of their codes:                            
  Ed Valeev, F. Pavosevic, A. Kumar             : LibInt (2-el integral package), F12 methods 
  Garnet Chan, S. Sharma, J. Yang, R. Olivares  : DMRG                   
  Ulf Ekstrom                                   : XCFun DFT Library      
  Mihaly Kallay                                 : mrcc  (arbitrary order and MRCC methods)
  Frank Weinhold                                : gennbo (NPA and NBO analysis)           
  Simon Mueller                                 : openCOSMO-RS                            
  Christopher J. Cramer and Donald G. Truhlar   : smd solvation model                     
  S Lehtola, MJT Oliveira, MAL Marques          : LibXC Library                           
  Liviu Ungur et al                             : ANISO software                          


 Your calculation uses the libint2 library for the computation of 2-el integrals
 For citations please refer to: http://libint.valeyev.net

 Your ORCA version has been built with support for libXC version: 6.2.2
 For citations please refer to: https://libxc.gitlab.io

 This ORCA versions uses:
   CBLAS   interface :  Fast vector & matrix operations
   LAPACKE interface :  Fast linear algebra routines
   SCALAPACK package :  Parallel linear algebra routines
   Shared memory     :  Shared parallel matrices
   BLAS/LAPACK       :  OpenBLAS 0.3.27  USE64BITINT DYNAMIC_ARCH NO_AFFINITY SkylakeX SINGLE_THREADED
        Core in use  :  SkylakeX
   Copyright (c) 2011-2014, The OpenBLAS Project


================================================================================

----- Orbital basis set information -----
Your calculation utilizes the basis: 6-31G*
   H-He, Li-Ne : W. J. Hehre, R. Ditchfield and J.A. Pople, J. Chem. Phys. 56, 2257 (1972).
                 Note: He and Ne are unpublished basis sets taken from the Gaussian program.
                 Note: Li and B from J. D. Dill and J. A. Pople, J. Chem. Phys. 62, 2921 (1975).
   Na - Ar     : M. M. Francl, W. J. Pietro, W. J. Hehre, J. S. Binkley, M. S. Gordon, 
                 D. J. DeFrees and J. A. Pople, J. Chem. Phys. 77, 3654 (1982).
   K - Zn      : V. A. Rassolov, J. A. Pople, M. A. Ratner, and T. L. Windus, J. Chem. Phys. 109, 1223 (1998).

================================================================================
                                        WARNINGS
                       Please study these warnings very carefully!
================================================================================


================================================================================
                                       INPUT FILE
================================================================================
NAME = frag.inp
|  1> !HF 6-31G* EnGrad
|  2> %pal nprocs 1 end
|  3> *xyz 0 1
|  4> O 20.35232000 49.63574000 40.01023000
|  5> H 20.79050000 48.92392000 40.26012000
|  6> H 19.54326000 49.49202000 40.30334000
|  7> O 22.25294000 44.28778000 39.87163000
|  8> H 22.68414000 43.83080000 40.47691000
|  9> H 22.81575000 44.91633000 39.64956000
| 10> O 21.99613000 48.36911000 43.54199000
| 11> H 21.97702000 49.24128000 43.53308000
| 12> H 21.46413000 48.14557000 42.88766000
| 13> *
| 14> 
| 15>                          ****END OF INPUT****
================================================================================

                     *******************************
                     * Energy+Gradient Calculation *
                     *******************************

---------------------------------
CARTESIAN COORDINATES (ANGSTROEM)
---------------------------------
  O     20.352320   49.635740   40.010230
  H     20.790500   48.923920   40.260120
  H     19.543260   49.492020   40.303340
  O     22.252940   44.287780   39.871630
  H     22.684140   43.830800   40.476910
  H     22.815750   44.916330   39.649560
  O     21.996130   48.369110   43.541990
  H     21.977020   49.241280   43.533080
  H     21.464130   48.145570   42.887660

----------------------------
CARTESIAN COORDINATES (A.U.)
----------------------------
  NO LB      ZA    FRAG     MASS         X           Y           Z
   0 O     8.0000    0    15.999   38.460311   93.797955   75.608377
   1 H     1.0000    0     1.008   39.288351   92.452810   76.080601
   2 H     1.0000    0     1.008   36.931409   93.526364   76.162275
   3 O     8.0000    0    15.999   42.051962   83.691775   75.346461
   4 H     1.0000    0     1.008   42.866812   82.828208   76.490275
   5 H     1.0000    0     1.008   43.115519   84.879563   74.926810
   6 O     8.0000    0    15.999   41.566662   91.404371   82.282436
   7 H     1.0000    0     1.008   41.530549   93.052534   82.265599
   8 H     1.0000    0     1.008   40.561327   90.981942   81.045932

--------------------------------
INTERNAL COORDINATES (ANGSTROEM)
--------------------------------
 O      0   0   0     0.000000000000     0.00000000     0.00000000
 H      1   0   0     0.872430190273     0.00000000     0.00000000
 H      1   2   0     0.872437386922   103.59919813     0.00000000
 O      2   1   3     4.876827794099   154.61306681    81.14133563
 H      4   2   1     0.872426523439   126.22082318   190.11640682
 H      4   2   1     0.872436406565    61.88972105   103.60376780
 O      2   1   3     3.540060526305   124.36490474   281.07896779
 H      7   2   1     0.872424832923    80.00248129   334.15276262
 H      7   2   1     0.872434456277    30.36512997   114.79492195

---------------------------
INTERNAL COORDINATES (A.U.)
---------------------------
 O      0   0   0     0.000000000000     0.00000000     0.00000000
 H      1   0   0     1.648654130581     0.00000000     0.00000000
 H      1   2   0     1.648667730277   103.59919813     0.00000000
 O      2   1   3     9.215868933143   154.61306681    81.14133563
 H      4   2   1     1.648647201269   126.22082318   190.11640682
 H      4   2   1     1.648665877670    61.88972105   103.60376780
 O      2   1   3     6.689744892221   124.36490474   281.07896779
 H      7   2   1     1.648644006656    80.00248129   334.15276262
 H      7   2   1     1.648662192161    30.36512997   114.79492195

---------------------
BASIS SET INFORMATION
---------------------
There are 2 groups of distinct atoms

 Group   1 Type O   : 10s4p1d contracted to 3s2p1d pattern {631/31/1}
 Group   2 Type H   : 4s contracted to 2s pattern {31}

Atom   0O    basis set group =>   1
Atom   1H    basis set group =>   2
Atom   2H    basis set group =>   2
Atom   3O    basis set group =>   1
Atom   4H    basis set group =>   2
Atom   5H    basis set group =>   2
Atom   6O    basis set group =>   1
Atom   7H    basis set group =>   2
Atom   8H    basis set group =>   2
------------------------------------------------------------------------------
                             ORCA STARTUP CALCULATIONS
------------------------------------------------------------------------------
------------------------------------------------------------------------------
                   ___                                                        
                  /   \      - P O W E R E D   B Y -                         
                 /     \                                                     
                 |  |  |   _    _      __       _____    __    __             
                 |  |  |  | |  | |    /  \     |  _  \  |  |  /  |          
                  \  \/   | |  | |   /    \    | | | |  |  | /  /          
                 / \  \   | |__| |  /  /\  \   | |_| |  |  |/  /          
                |  |  |   |  __  | /  /__\  \  |    /   |      \           
                |  |  |   | |  | | |   __   |  |    \   |  |\   \          
                \     /   | |  | | |  |  |  |  | |\  \  |  | \   \       
                 \___/    |_|  |_| |__|  |__|  |_| \__\ |__|  \__/        
                                                                              
                      - O R C A' S   B I G   F R I E N D -                    
                                      &                                       
                       - I N T E G R A L  F E E D E R -                       
                                                                              
 v1 FN, 2020, v2 2021, v3 2022-2024                                           
------------------------------------------------------------------------------


----------------------
SHARK INTEGRAL PACKAGE
----------------------

Number of atoms                             ...      9
Number of basis functions                   ...     54
Number of shells                            ...     30
Maximum angular momentum                    ...      2
Integral batch strategy                     ... SHARK/LIBINT Hybrid
RI-J (if used) integral strategy            ... SPLIT-RIJ (Revised 2003 algorithm where possible)
Printlevel                                  ...      1
Contraction scheme used                     ... SEGMENTED contraction
Prescreening option                         ... SCHWARTZ
   Thresh                                   ... 2.500e-11
   Tcut                                     ... 2.500e-12
   Tpresel                                  ... 2.500e-12 
Coulomb Range Separation                    ... NOT USED
Exchange Range Separation                   ... NOT USED
Multipole approximations                    ... NOT USED
Finite Nucleus Model                        ... NOT USED
CABS basis                                  ... NOT available
Auxiliary Coulomb fitting basis             ... NOT available
Auxiliary J/K fitting basis                 ... NOT available
Auxiliary Correlation fitting basis         ... NOT available
Auxiliary 'external' fitting basis          ... NOT available

Checking pre-screening integrals            ... done (  0.0 sec) Dimension = 30
Check shell pair data                       ... done (  0.0 sec)
Shell pair information
Shell pair cut-off parameter TPreSel        ...   2.5e-12
Total number of shell pairs                 ...       465
Shell pairs after pre-screening             ...       372
Total number of primitive shell pairs       ...      2496
Primitive shell pairs kept                  ...      1342
          la=0 lb=0:    189 shell pairs
          la=1 lb=0:    102 shell pairs
          la=1 lb=1:     18 shell pairs
          la=2 lb=0:     45 shell pairs
          la=2 lb=1:     14 shell pairs
          la=2 lb=2:      4 shell pairs

Calculating one electron integrals          ... done (  0.0 sec)
Calculating Nuclear repulsion               ... done (  0.0 sec) ENN=     62.757077092414 Eh

Diagonalization of the overlap matrix:
Smallest eigenvalue                        ... 4.489e-02
Time for diagonalization                   ...    0.002 sec
Threshold for overlap eigenvalues          ... 1.000e-07
Number of eigenvalues below threshold      ... 0
Time for construction of square roots      ...    0.002 sec
Total time needed                          ...    0.006 sec

-------------------
DFT GRID GENERATION
-------------------

General Integration Accuracy     IntAcc      ... 4.388
Radial Grid Type                 RadialGrid  ... OptM3 with GC (2021)
Angular Grid (max. ang.)         AngularGrid ... 4 (Lebedev-302)
Angular grid pruning method      GridPruning ... 4 (adaptive)
Weight generation scheme         WeightScheme... mBecke (2022)
Basis function cutoff            BFCut       ... 1.0000e-11
Integration weight cutoff        WCut        ... 1.0000e-14
Partially contracted basis set               ... off
Rotationally invariant grid construction     ... off
Angular grids for H and He will be reduced by one unit

Total number of grid points                  ...    38206
Total number of batches                      ...      601
Average number of points per batch           ...       63
Average number of grid points per atom       ...     4245
Initializing property integral containers    ... done (  0.0 sec)

SHARK setup successfully completed in   0.3 seconds

Maximum memory used throughout the entire STARTUP-calculation: 13.1 MB
-------------------------------------------------------------------------------
                                 ORCA GUESS
                   Start orbitals & Density for SCF / CASSCF
-------------------------------------------------------------------------------

------------
SCF SETTINGS
------------
Hamiltonian:
 Ab initio Hamiltonian  Method          .... Hartree-Fock(GTOs)


General Settings:
 Integral files         IntName         .... frag
 Hartree-Fock type      HFTyp           .... RHF
 Total Charge           Charge          ....    0
 Multiplicity           Mult            ....    1
 Number of Electrons    NEL             ....   30
 Basis Dimension        Dim             ....   54
 Nuclear Repulsion      ENuc            ....     62.7570770924 Eh

Convergence Acceleration:
 AO-DIIS                CNVDIIS         .... on
   Start iteration      DIISMaxIt       ....    12
   Startup error        DIISStart       ....  0.200000
   # of expansion vecs  DIISMaxEq       ....     5
   Bias factor          DIISBfac        ....   1.050
   Max. coefficient     DIISMaxC        ....  10.000
 MO-DIIS                CNVKDIIS        .... off
 Trust-Rad. Augm. Hess. CNVTRAH         .... auto
   Auto Start mean grad. ratio tolernc. ....  1.125000
   Auto Start start iteration           ....    50
   Auto Start num. interpolation iter.  ....    10
   Max. Number of Micro iterations      ....    24
   Max. Number of Macro iterations      .... Maxiter - #DIIS iter
   Number of Davidson start vectors     ....     2
   Converg. threshold    (grad. norm)   ....   1.000e-05
   Grad. Scal. Fac. for Micro threshold ....   0.100
   Minimum threshold for Micro iter.    ....   1.000e-02
   NR start threshold (gradient norm)   ....   1.000e-04
   Initial trust radius                 ....   0.400
   Minimum AH scaling param. (alpha)    ....   1.000
   Maximum AH scaling param. (alpha)    .... 1000.000
   Quad. conv. algorithm                .... NR
   White noise on init. David. guess    .... on
   Maximum white noise                  ....   0.010
   Pseudo random numbers                .... off
   Inactive MOs                         .... canonical
   Orbital update algorithm             .... Taylor
   Preconditioner                       .... Diag
   Full preconditioner red. dimension   ....   250
 SOSCF                  CNVSOSCF        .... on
   Start iteration      SOSCFMaxIt      ....   150
   Startup grad/error   SOSCFStart      ....  0.003300
   Hessian update       SOSCFHessUp     .... L-BFGS
 Level Shifting         CNVShift        .... on
   Level shift para.    LevelShift      ....    0.2500
   Turn off err/grad.   ShiftErr        ....    0.0010
 Zerner damping         CNVZerner       .... off
 Static damping         CNVDamp         .... on
   Fraction old density DampFac         ....    0.7000
   Max. Damping (<1)    DampMax         ....    0.9800
   Min. Damping (>=0)   DampMin         ....    0.0000
   Turn off err/grad.   DampErr         ....    0.1000

SCF Procedure:
 Maximum # iterations   MaxIter         ....   125
 SCF integral mode      SCFMode         .... Direct
   Integral package                     .... SHARK and LIBINT hybrid scheme
 Reset frequency        DirectResetFreq ....    20
 Integral Threshold     Thresh          ....  2.500e-11 Eh
 Primitive CutOff       TCut            ....  2.500e-12 Eh

Convergence Tolerance:
 Convergence Check Mode ConvCheckMode   .... Total+1el-Energy
 Convergence forced     ConvForced      .... 0
 Energy Change          TolE            ....  1.000e-08 Eh
 1-El. energy change                    ....  1.000e-05 Eh
 Orbital Gradient       TolG            ....  1.000e-05
 Orbital Rotation angle TolX            ....  1.000e-05
 DIIS Error             TolErr          ....  5.000e-07

------------------------------
INITIAL GUESS: MODEL POTENTIAL
------------------------------
Loading Hartree-Fock densities                     ... done
Calculating cut-offs                               ... done
Initializing the effective Hamiltonian             ... done
Setting up the integral package (SHARK)            ... done
Starting the Coulomb interaction                   ... done (   0.0 sec)
Making the grid                                    ... done (   0.0 sec)
Mapping shells                                     ... done
Starting the XC term evaluation                    ... done (   0.0 sec)
Transforming the Hamiltonian                       ... done (   0.0 sec)
Diagonalizing the Hamiltonian                      ... done (   0.0 sec)
Back transforming the eigenvectors                 ... done (   0.0 sec)
Now organizing SCF variables                       ... done
                      ------------------
                      INITIAL GUESS DONE (   0.1 sec)
                      ------------------
             **** ENERGY FILE WAS UPDATED (frag.en.tmp) ****
Finished Guess after   0.1 sec
Maximum memory used throughout the entire GUESS-calculation: 5.6 MB

-------------------------------------------------------------------------------------------
                                      ORCA LEAN-SCF
                              memory conserving SCF solver
-------------------------------------------------------------------------------------------

----------------------------------------D-I-I-S--------------------------------------------
Iteration    Energy (Eh)           Delta-E    RMSDP     MaxDP     DIISErr   Damp  Time(sec)
-------------------------------------------------------------------------------------------
               ***  Starting incremental Fock matrix formation  ***
    1    -227.6690804438026419     0.00e+00  7.24e-03  7.29e-02  3.30e-01  0.700   0.1
    2    -227.7917381255356020    -1.23e-01  4.92e-03  4.99e-02  2.00e-01  0.700   0.1
                               ***Turning on AO-DIIS***
    3    -227.8579987586858522    -6.63e-02  1.93e-03  2.13e-02  1.11e-01  0.700   0.1
    4    -227.8980139873803807    -4.00e-02  1.16e-03  1.36e-02  7.55e-02  0.700   0.1
    5    -227.9244619820321134    -2.64e-02  2.69e-03  3.21e-02  5.37e-02  0.000   0.1
                              *** Initializing SOSCF ***
---------------------------------------S-O-S-C-F--------------------------------------
Iteration    Energy (Eh)           Delta-E    RMSDP     MaxDP     MaxGrad    Time(sec)
--------------------------------------------------------------------------------------
    6    -227.9834475091059574    -5.90e-02  1.87e-04  1.64e-03  3.28e-03     0.1
               *** Restarting incremental Fock matrix formation ***
    7    -227.9834947538914491    -4.72e-05  1.24e-04  8.31e-04  6.97e-04     0.1
    8    -227.9835033402933675    -8.59e-06  8.57e-05  6.25e-04  3.63e-04     0.1
    9    -227.9835049351707141    -1.59e-06  1.14e-05  1.01e-04  1.07e-04     0.1
   10    -227.9835050124894167    -7.73e-08  1.48e-06  1.15e-05  1.00e-05     0.1
   11    -227.9835050142069406    -1.72e-09  7.72e-07  6.15e-06  3.37e-06     0.1
                 **** Energy Check signals convergence ****

               *****************************************************
               *                     SUCCESS                       *
               *           SCF CONVERGED AFTER  11 CYCLES          *
               *****************************************************

             **** ENERGY FILE WAS UPDATED (frag.en.tmp) ****

----------------
TOTAL SCF ENERGY
----------------

Total Energy       :       -227.98350501420694 Eh           -6203.74656 eV

Components:
Nuclear Repulsion  :         62.75707709241411 Eh            1707.70689 eV
Electronic Energy  :       -290.74058210662105 Eh           -7911.45345 eV
One Electron Energy:       -438.56130865744586 Eh          -11933.85991 eV
Two Electron Energy:        147.82072655082482 Eh            4022.40646 eV

Virial components:
Potential Energy   :       -457.12782606690752 Eh          -12439.08054 eV
Kinetic Energy     :        229.14432105270058 Eh            6235.33397 eV
Virial Ratio       :          1.99493412695911

---------------
SCF CONVERGENCE
---------------

  Last Energy change         ...    1.7175e-09  Tolerance :   1.0000e-08
  Last MAX-Density change    ...    6.1543e-06  Tolerance :   1.0000e-07
  Last RMS-Density change    ...    7.7207e-07  Tolerance :   5.0000e-09
  Last DIIS Error            ...    3.2812e-03  Tolerance :   5.0000e-07
  Last Orbital Gradient      ...    3.3701e-06  Tolerance :   1.0000e-05
  Last Orbital Rotation      ...    3.8666e-06  Tolerance :   1.0000e-05


----------------
ORBITAL ENERGIES
----------------

  NO   OCC          E(Eh)            E(eV) 
   0   2.0000     -20.550862      -559.2174 
   1   2.0000     -20.545951      -559.0838 
   2   2.0000     -20.542774      -558.9973 
   3   2.0000      -1.404402       -38.2157 
   4   2.0000      -1.399465       -38.0814 
   5   2.0000      -1.396356       -37.9968 
   6   2.0000      -0.766943       -20.8696 
   7   2.0000      -0.762025       -20.7358 
   8   2.0000      -0.759043       -20.6546 
   9   2.0000      -0.601251       -16.3609 
  10   2.0000      -0.596249       -16.2248 
  11   2.0000      -0.593867       -16.1599 
  12   2.0000      -0.517688       -14.0870 
  13   2.0000      -0.512886       -13.9563 
  14   2.0000      -0.510166       -13.8823 
  15   0.0000       0.175002         4.7621 
  16   0.0000       0.228062         6.2059 
  17   0.0000       0.260016         7.0754 
  18   0.0000       0.300018         8.1639 
  19   0.0000       0.321883         8.7589 
  20   0.0000       0.368233        10.0201 
  21   0.0000       1.043523        28.3957 
  22   0.0000       1.047642        28.5078 
  23   0.0000       1.050236        28.5784 
  24   0.0000       1.152883        31.3715 
  25   0.0000       1.159877        31.5619 
*Only the first 10 virtual orbitals were printed.

                    ********************************
                    * MULLIKEN POPULATION ANALYSIS *
                    ********************************

-----------------------
MULLIKEN ATOMIC CHARGES
-----------------------
   0 O :   -0.887168
   1 H :    0.442366
   2 H :    0.445481
   3 O :   -0.889718
   4 H :    0.445993
   5 H :    0.443728
   6 O :   -0.887340
   7 H :    0.447491
   8 H :    0.439166
Sum of atomic charges:   -0.0000000

--------------------------------
MULLIKEN REDUCED ORBITAL CHARGES
--------------------------------
  0 O s       :     3.847973  s :     3.847973
      pz      :     1.911669  p :     5.005460
      px      :     1.417634
      py      :     1.676157
      dz2     :     0.003590  d :     0.033735
      dxz     :     0.006414
      dyz     :     0.005826
      dx2y2   :     0.009785
      dxy     :     0.008119

  1 H s       :     0.557634  s :     0.557634

  2 H s       :     0.554519  s :     0.554519

  3 O s       :     3.845805  s :     3.845805
      pz      :     1.718517  p :     5.010466
      px      :     1.712686
      py      :     1.579263
      dz2     :     0.004566  d :     0.033447
      dxz     :     0.009532
      dyz     :     0.002834
      dx2y2   :     0.001733
      dxy     :     0.014782

  4 H s       :     0.554007  s :     0.554007

  5 H s       :     0.556272  s :     0.556272

  6 O s       :     3.847097  s :     3.847097
      pz      :     1.724866  p :     5.006672
      px      :     1.817765
      py      :     1.464041
      dz2     :     0.007326  d :     0.033571
      dxz     :     0.010500
      dyz     :     0.001772
      dx2y2   :     0.012302
      dxy     :     0.001671

  7 H s       :     0.552509  s :     0.552509

  8 H s       :     0.560834  s :     0.560834



                     *******************************
                     * LOEWDIN POPULATION ANALYSIS *
                     *******************************

----------------------
LOEWDIN ATOMIC CHARGES
----------------------
   0 O :   -0.624111
   1 H :    0.310403
   2 H :    0.314169
   3 O :   -0.627152
   4 H :    0.314250
   5 H :    0.312905
   6 O :   -0.624415
   7 H :    0.315274
   8 H :    0.308677

-------------------------------
LOEWDIN REDUCED ORBITAL CHARGES
-------------------------------
  0 O s       :     3.555995  s :     3.555995
      pz      :     1.915517  p :     5.025516
      px      :     1.422482
      py      :     1.687517
      dz2     :     0.004259  d :     0.042600
      dxz     :     0.008072
      dyz     :     0.006250
      dx2y2   :     0.013051
      dxy     :     0.010968

  1 H s       :     0.689597  s :     0.689597

  2 H s       :     0.685831  s :     0.685831

  3 O s       :     3.555553  s :     3.555553
      pz      :     1.721512  p :     5.029389
      px      :     1.725998
      py      :     1.581879
      dz2     :     0.005579  d :     0.042210
      dxz     :     0.011536
      dyz     :     0.004360
      dx2y2   :     0.001801
      dxy     :     0.018933

  4 H s       :     0.685750  s :     0.685750

  5 H s       :     0.687095  s :     0.687095

  6 O s       :     3.555420  s :     3.555420
      pz      :     1.732197  p :     5.026560
      px      :     1.823284
      py      :     1.471079
      dz2     :     0.009188  d :     0.042435
      dxz     :     0.012847
      dyz     :     0.002334
      dx2y2   :     0.016008
      dxy     :     0.002057

  7 H s       :     0.684726  s :     0.684726

  8 H s       :     0.691323  s :     0.691323



                      *****************************
                      * MAYER POPULATION ANALYSIS *
                      *****************************

  NA   - Mulliken gross atomic population
  ZA   - Total nuclear charge
  QA   - Mulliken gross atomic charge
  VA   - Mayer's total valence
  BVA  - Mayer's bonded valence
  FA   - Mayer's free valence

  ATOM       NA         ZA         QA         VA         BVA        FA
  0 O      8.8872     8.0000    -0.8872     1.5541     1.5541    -0.0000
  1 H      0.5576     1.0000     0.4424     0.7687     0.7687    -0.0000
  2 H      0.5545     1.0000     0.4455     0.7659     0.7659    -0.0000
  3 O      8.8897     8.0000    -0.8897     1.5523     1.5523    -0.0000
  4 H      0.5540     1.0000     0.4460     0.7657     0.7657     0.0000
  5 H      0.5563     1.0000     0.4437     0.7673     0.7673    -0.0000
  6 O      8.8873     8.0000    -0.8873     1.5534     1.5534    -0.0000
  7 H      0.5525     1.0000     0.4475     0.7647     0.7647    -0.0000
  8 H      0.5608     1.0000     0.4392     0.7719     0.7719    -0.0000

  Mayer bond orders larger than 0.100000
B(  0-O ,  1-H ) :   0.7756 B(  0-O ,  2-H ) :   0.7756 B(  3-O ,  4-H ) :   0.7753 
B(  3-O ,  5-H ) :   0.7769 B(  6-O ,  7-H ) :   0.7743 B(  6-O ,  8-H ) :   0.7777 


-------
TIMINGS
-------

Total SCF time: 0 days 0 hours 0 min 0 sec 

Total time                  ....       0.845 sec
Sum of individual times     ....       0.771 sec  ( 91.2%)

SCF preparation             ....       0.056 sec  (  6.6%)
Fock matrix formation       ....       0.435 sec  ( 51.4%)
  Startup                   ....       0.031 sec  (  7.2% of F)
  Coulomb+Exchange Fock     ....       0.354 sec  ( 81.5% of F)
Diagonalization             ....       0.000 sec  (  0.0%)
Density matrix formation    ....       0.082 sec  (  9.7%)
Total Energy calculation    ....       0.021 sec  (  2.5%)
Population analysis         ....       0.016 sec  (  1.9%)
Orbital Transformation      ....       0.017 sec  (  2.0%)
Orbital Orthonormalization  ....       0.000 sec  (  0.0%)
DIIS solution               ....       0.091 sec  ( 10.8%)
SOSCF solution              ....       0.053 sec  (  6.2%)
Finished LeanSCF after   0.9 sec

Maximum memory used throughout the entire LEANSCF-calculation: 7.6 MB

-------------------------   --------------------
FINAL SINGLE POINT ENERGY      -227.983505014207
-------------------------   --------------------

------------------------------------------------------------------------------
                         ORCA SCF GRADIENT CALCULATION
------------------------------------------------------------------------------

Nuc. rep. gradient        (SHARK) ... done (  0.0 sec)
HCore & Overlap gradient  (SHARK) ... done (  0.0 sec)
Two-electron gradient     (SHARK) ... done (  0.1 sec)

------------------
CARTESIAN GRADIENT
------------------

   1   O   :   -0.043858035   -0.098682218    0.059336790
   2   H   :   -0.064391322    0.089136965   -0.026202070
   3   H   :    0.108248172    0.010228884   -0.033159374
   4   O   :    0.115340743    0.018833051    0.044000367
   5   H   :   -0.048437339    0.065091161   -0.079218481
   6   H   :   -0.066989821   -0.084208566    0.035092306
   7   O   :   -0.063385221    0.075639068   -0.075254211
   8   H   :   -0.003669116   -0.113598524   -0.006265953
   9   H   :    0.067141939    0.037560181    0.081670625

Difference to translation invariance:
           :   -0.0000000000   -0.0000000001   -0.0000000000

Difference to rotation invariance:
           :    0.0000001640    0.0000000826   -0.0000000558

Norm of the Cartesian gradient     ...    0.3508475240
RMS gradient                       ...    0.0675206375
MAX gradient                       ...    0.1153407432

-------
TIMINGS
-------

Total SCF gradient time     ....        0.158 sec

Densities                   ....       0.000 sec  (  0.0%)
One electron gradient       ....       0.016 sec  ( 10.3%)
Two electron gradient       ....       0.141 sec  ( 89.5%)

Maximum memory used throughout the entire SCFGRAD-calculation: 13.4 MB

------------------------------------------------------------------------------
                              ORCA PROPERTY CALCULATIONS
------------------------------------------------------------------------------

GBWName                                 ... frag.gbw
Number of atoms                         ...      9
Number of basis functions               ...     54
Max core memory                         ...   1024 MB

Electric properties:
Dipole moment                           ... YES
Quadrupole moment                       ...  NO
Static polarizability (Dipole/Dipole)   ...  NO
Static polarizability (Dipole/Quad.)    ...  NO
Static polarizability (Quad./Quad.)     ...  NO
Static polarizability (Velocity)        ...  NO

Atomic electric properties:
Dipole moment                           ...  NO
Quadrupole moment                       ...  NO
Static polarizability                   ...  NO

Choice of electric origin               ... Center of mass
Position of electric origin             ...    40.695517    89.630122    77.755027

General magnetic properties:
Magnetizability                         ...  NO

EPR properties:
g-Tensor (aka g-matrix)                 ...  NO
Zero-Field splitting spin-orbit         ...  NO
Zero-field splitting spin-spin          ...  NO
Hyperfine couplings                     ...  NO (   0 nuclei)
Quadrupole couplings                    ...  NO (   0 nuclei)
Contact density                         ...  NO (   0 nuclei)

NMR properties:
Chemical shifts                         ...  NO (   0 nuclei)
Spin-rotation constants                 ...  NO (   0 nuclei)
Spin-spin couplings                     ...  NO (   0 nuclei,    0 pairs)

Choice of magnetic origin               ... GIAO
Position of magnetic origin             ...     0.000000     0.000000     0.000000

Properties with geometric perturbations:
SCF Hessian                             ...  NO
IR spectrum                             ...  NO
VCD spectrum                            ...  NO
X-ray spectroscopy properties:
SCF XES/XAS/RIXS spectra                ...  NO


-------------
DIPOLE MOMENT
-------------

Method             : SCF
Type of density    : Electron Density
Multiplicity       :   1
Irrep              :   0
Energy             :  -227.9835050142069406 Eh
Relativity type    : 
Basis              : AO
                                X                 Y                 Z
Electronic contribution:     -0.002895378       0.010936505      -0.015451912
Nuclear contribution   :      0.059946613      -0.029415625       0.218885877
                        -----------------------------------------
Total Dipole Moment    :      0.057051235      -0.018479119       0.203433965
                        -----------------------------------------
Magnitude (a.u.)       :      0.212088895
Magnitude (Debye)      :      0.539087129



--------------------
Rotational spectrum 
--------------------
 
Rotational constants in cm-1:             0.114532             0.051511             0.035756 
Rotational constants in MHz :          3433.568514          1544.246151          1071.944000 

Dipole components along the rotational axes: 
x,y,z [a.u.] :     0.035939     0.208284     0.017550 
x,y,z [Debye]:     0.091350     0.529415     0.044608 

 

Dipole moment calculation done in   0.0 sec 

Maximum memory used throughout the entire PROP-calculation: 2.0 MB

--------------------------------
SUGGESTED CITATIONS FOR THIS RUN
--------------------------------

Below you find a list of papers that are relevant to this ORCA run
We neither can nor want to force you to cite these papers, but we appreciate if you do
You receive ORCA, which is the product of decades of hard work by many enthusiastic individuals, for free
The only thing we kindly ask in return is that you cite our papers,
We deeply appreciate it, if you show your appreciation for ORCA by not just citing the generic ORCA reference.

Please note that relegating all ORCA citations to the supporting information does *not* help us.
SI sections are not indexed - citations you put there will not count into any citation statistics
But we need these citations in order to attract the funding resources that allow us to do what we are doing

Therefore, if you are a happy ORCA user, please consider citing a few of the papers listed below in the main body of your paper

In addition to the list printed below, the program has created the file frag.bibtex that contains the list in bibtex format
You can import this file easily into all common literature databanks and citation aid programs


List of essential papers. We consider these as the minimum necessary citations

  1. Neese,F.
     Software update: the ORCA program system, version 5.0
     WIRES Comput. Molec. Sci., 2022 12(1)e1606
     doi.org/10.1002/wcms.1606

List of papers to cite with high priority. The work reported in these papers was absolutely
necessary for this run to complete.
Our perspective: the developers of density functionals and basis sets usually get cited in chemistry papers
Good! But without the algorithms to do something with them, the functionals or basis sets would not do anything.
Hence, in our opinion, the algorithm design and method developments papers are equally worthy of getting cited

  1. Neese,F.
     The SHARK Integral Generation and Digestion System
     J. Comp. Chem., 2022  1-16
     doi.org/10.1002/jcc.26942

List of suggested additional citations. These are papers that are important in the 'surrounding' of 
of this run, or papers that preceded the highly important papers. If you like your results we are grateful for a citation.

  1. Neese,F.
     The ORCA program system
     WIRES Comput. Molec. Sci., 2012 2(1)73-78
     doi.org/10.1002/wcms.81
  2. Neese,F.
     Software update: the ORCA program system, version 4.0
     WIRES Comput. Molec. Sci., 2018 8(1)1-6
     doi.org/10.1002/wcms.1327
  3. Neese,F.; Wennmohs,F.; Becker,U.; Riplinger,C.
     The ORCA quantum chemistry program package
     J. Chem. Phys., 2020 152 Art. No. L224108
     doi.org/10.1063/5.0004608

List of optional additional citations

  1. Neese,F.
     Approximate second-order SCF convergence for spin unrestricted wavefunctions
     Chem. Phys. Lett., 2000 325(1-3)93-98
     doi.org/10.1016/s0009-2614(00)00662-x

Timings for individual modules:

Sum of individual times          ...        1.669 sec (=   0.028 min)
Startup calculation              ...        0.330 sec (=   0.006 min)  19.8 %
SCF iterations                   ...        1.059 sec (=   0.018 min)  63.4 %
Property calculations            ...        0.068 sec (=   0.001 min)   4.1 %
SCF Gradient evaluation          ...        0.212 sec (=   0.004 min)  12.7 %
                             ****ORCA TERMINATED NORMALLY****
TOTAL RUN TIME: 0 days 0 hours 0 minutes 1 seconds 977 msec
