
                                 *****************
                                 * O   R   C   A *
                                 *****************

                                            #,                                       
                                            ###                                      
                                            ####                                     
                                            #####                                    
                                            ######                                   
                                           ########,                                 
                                     ,,################,,,,,                         
                               ,,#################################,,                 
                          ,,##########################################,,             
                       ,#########################################, ''#####,          
                    ,#############################################,,   '####,        
                  ,##################################################,,,,####,       
                ,###########''''           ''''###############################       
              ,#####''   ,,,,##########,,,,          '''####'''          '####       
            ,##' ,,,,###########################,,,                        '##       
           ' ,,###''''                  '''############,,,                           
         ,,##''                                '''############,,,,        ,,,,,,###''
      ,#''                                            '''#######################'''  
     '                                                          ''''####''''         
             ,#######,   #######,   ,#######,      ##                                
            ,#'     '#,  ##    ##  ,#'     '#,    #''#        ,####,   ,####,        
            ##       ##  ##   ,#'  ##            #'  '#       #'       #'  '#        
            ##       ##  #######   ##           ,######,      #####,   #    #        
            '#,     ,#'  ##    ##  '#,     ,#' ,#      #,     #,   #   #,  ,#        
             '#######'   ##     ##  '#######'  #'      '#     '####' # '####'        



                #########################################################
                #                        -***-                          #
                #          Department of theory and spectroscopy        #
                #                                                       #
                #                      Frank Neese                      #
                #                                                       #
                #     Directorship, Architecture, Infrastructure        #
                #                    SHARK, DRIVERS                     #
                #        Core code/Algorithms in most modules           #
                #                                                       #
                #        Max Planck Institute fuer Kohlenforschung      #
                #                Kaiser Wilhelm Platz 1                 #
                #                 D-45470 Muelheim/Ruhr                 #
                #                      Germany                          #
                #                                                       #
                #                  All rights reserved                  #
                #                        -***-                          #
                #########################################################


                         Program Version 6.0.1  -  RELEASE   -


 With contributions from (in alphabetic order):
[Max-Planck-Institut fuer Kohlenforschung]                               
  Daniel Aravena         : Magnetic Suceptibility                        
  Michael Atanasov       : Ab Initio Ligand Field Theory (pilot matlab implementation)
  Alexander A. Auer      : GIAO ZORA, VPT2 properties, NMR spectrum      
  Ute Becker             : All parallelization in ORCA, NUMFREQ, NUMCALC 
  Giovanni Bistoni       : ED, misc. LED, open-shell LED, HFLD           
  Martin Brehm           : Molecular dynamics                            
  Dmytro Bykov           : pre 5.0 version of the SCF Hessian            
  Marcos Casanova-Páez   : Triplet and SCS-CIS(D). UHF-(DLPNO)-IP/EA/STEOM-CCSD. UHF-CVS-IP/STEOM-CCSD   
  Vijay G. Chilkuri      : MRCI spin determinant printing, contributions to CSF-ICE 
  Pauline Colinet        : FMM embedding                                 
  Dipayan Datta          : RHF DLPNO-CCSD density                        
  Achintya Kumar Dutta   : EOM-CC, STEOM-CC                              
  Nicolas Foglia         : Exact transition moments, OPA infrastructure, MCD improvements    
  Dmitry Ganyushin       : Spin-Orbit,Spin-Spin,Magnetic field MRCI      
  Miquel Garcia-Rates    : C-PCM and meta-GGA Hessian, CCSD/C-PCM, Gaussian charge scheme 
  Tiago L. C. Gouveia    : GS-ROHF, GS-ROCIS                             
  Yang Guo               : DLPNO-NEVPT2, F12-NEVPT2, CIM, IAO-localization        
  Andreas Hansen         : Spin unrestricted coupled pair/coupled cluster methods 
  Ingolf Harden          : AUTO-CI MPn and infrastructure                
  Benjamin Helmich-Paris : MC-RPA, TRAH-(SCF,CASSCF), AVAS, COSX integrals, SCF dyn. polar. 
  Lee Huntington         : MR-EOM, pCC                                   
  Robert Izsak           : Overlap fitted RIJCOSX, COSX-SCS-MP3, EOM     
  Riya Kayal             : Wick's Theorem for AUTO-CI, AUTO-CI UHF-CCSDT 
  Emily Kempfer          : AUTO-CI, RHF CISDT and CCSDT                  
  Christian Kollmar      : KDIIS, OOCD, Brueckner-CCSD(T), CCSD density, CASPT2, CASPT2-K, improved NEVPT2 
  Axel Koslowski         : Symmetry handling                             
  Simone Kossmann        : meta-GGA functionals, TD-DFT gradient, OOMP2, (MP2 Hessian; deprecated post 5.0) 
  Lucas Lang             : DCDCAS                                        
  Marvin Lechner         : AUTO-CI (C++ implementation), FIC-MRCC        
  Spencer Leger          : CASSCF response                               
  Dagmar Lenk            : GEPOL surface, SMD, ORCA-2-JSON               
  Dimitrios Liakos       : Extrapolation schemes; Compound Job, initial MDCI parallelization 
  Dimitrios Manganas     : Further ROCIS development; embedding schemes. LFT, Crystal Embedding 
  Dimitrios Pantazis     : SARC Basis sets                               
  Anastasios Papadopoulos: AUTO-CI, single reference methods and gradients 
  Taras Petrenko         : pre 6.0 DFT Hessian and TD-DFT gradient, (ASA, deprecated), ECA, 1-Electron XAS/XES, NRVS 
  Peter Pinski           : DLPNO-MP2, DLPNO-MP2 Gradient                 
  Christoph Reimann      : Effective Core Potentials                     
  Marius Retegan         : Local ZFS, SOC                                
  Christoph Riplinger    : Optimizer, TS searches, QM/MM, DLPNO-CCSD(T), (RO)-DLPNO pert. Triples 
  Michael Roemelt        : Original ROCIS implementation                 
  Masaaki Saitow         : Open-shell DLPNO-CCSD energy and density      
  Barbara Sandhoefer     : DKH picture change effects                    
  Kantharuban Sivalingam : CASSCF convergence/infrastructure, NEVPT2 and variants, FIC-MRCI 
  Bernardo de Souza      : ESD, SOC TD-DFT                               
  Georgi L. Stoychev     : AutoAux, RI-MP2 NMR, DLPNO-MP2 response, X2C  
  Van Anh Tran           : RI-MP2 g-tensors                              
  Willem Van den Heuvel  : Paramagnetic NMR                              
  Zikuan Wang            : NOTCH, Electric field optimization            
  Frank Wennmohs         : Technical directorship and infrastructure     
  Hang Xu                : AUTO-CI-Response properties                   
                                                                         
[FACCTs GmbH]                                                            
  Markus Bursch, Miquel Garcia-Rates, Christoph Riplinger, Bernardo de Souza, Georgi L. Stoychev 
                                                                 
  APM, Basis sets (HGBS, AHGBS, def-TZVP (Ac-Lr), def2-XVPD (La-Lu)), CI-OPT, improved COSX, DLPNO-Multilevel,           
  DOCKER, DRACO, updates on ESD, GOAT, IRC, LR-CPCM, MBIS, meta-GGA TD-DFT gradient, ML-optimized integration grids, 
  MM, NACMEs, nearIR, NEB, NEB-TS, NL-DFT gradient (VV10), 2- and 3-layer-ONIOM, interface openCOSMO-RS, QMMM,   
  Crystal-QMMM, SF, symmetry and pop. for TD-DFT, r2SCAN hybrids, SOLVATOR                                   
                                                                         
[Other institutions]                                                     
  V. Asgeirsson          : NEB                                           
  Christoph Bannwarth    : sTDA-DFT, sTD-DFT, PBEh-3c, B97-3c, D3        
  Sebastian Ehlert       : rSCAN, r2SCAN, r2SCAN-3c, D4, dhf basis sets  
  Marvin Friede          : D4 for Fr, Ra, Ac-Lr                          
  Lars Goerigk           : TD-DFT with DH, B97 family of functionals     
  Stefan Grimme          : VdW corrections, initial TS optimization, DFT functionals, gCP, sTDA/sTD-DF 
  Waldemar Hujo          : DFT-NL                                        
  H. Jonsson             : NEB                                           
  Holger Kruse           : gCP                                           
  Marcel Mueller         : wB97X-3c, vDZP basis set                      
  Hagen Neugebauer       : wr2SCAN                                       
  Tobias Risthaus        : range-separated hybrid DFT                    
  Lukas Wittmann         : regularized MP2, r2SCAN double-hybrids, wr2SCAN        
                                                                         
We gratefully acknowledge several colleagues who have allowed us to      
interface, adapt or use parts of their codes:                            
  Ed Valeev, F. Pavosevic, A. Kumar             : LibInt (2-el integral package), F12 methods 
  Garnet Chan, S. Sharma, J. Yang, R. Olivares  : DMRG                   
  Ulf Ekstrom                                   : XCFun DFT Library      
  Mihaly Kallay                                 : mrcc  (arbitrary order and MRCC methods)
  Frank Weinhold                                : gennbo (NPA and NBO analysis)           
  Simon Mueller                                 : openCOSMO-RS                            
  Christopher J. Cramer and Donald G. Truhlar   : smd solvation model                     
  S Lehtola, MJT Oliveira, MAL Marques          : LibXC Library                           
  Liviu Ungur et al                             : ANISO software                          


 Your calculation uses the libint2 library for the computation of 2-el integrals
 For citations please refer to: http://libint.valeyev.net

 Your ORCA version has been built with support for libXC version: 6.2.2
 For citations please refer to: https://libxc.gitlab.io

 This ORCA versions uses:
   CBLAS   interface :  Fast vector & matrix operations
   LAPACKE interface :  Fast linear algebra routines
   SCALAPACK package :  Parallel linear algebra routines
   Shared memory     :  Shared parallel matrices
   BLAS/LAPACK       :  OpenBLAS 0.3.27  USE64BITINT DYNAMIC_ARCH NO_AFFINITY SkylakeX SINGLE_THREADED
        Core in use  :  SkylakeX
   Copyright (c) 2011-2014, The OpenBLAS Project


================================================================================

----- Orbital basis set information -----
Your calculation utilizes the basis: 6-31G*
   H-He, Li-Ne : W. J. Hehre, R. Ditchfield and J.A. Pople, J. Chem. Phys. 56, 2257 (1972).
                 Note: He and Ne are unpublished basis sets taken from the Gaussian program.
                 Note: Li and B from J. D. Dill and J. A. Pople, J. Chem. Phys. 62, 2921 (1975).
   Na - Ar     : M. M. Francl, W. J. Pietro, W. J. Hehre, J. S. Binkley, M. S. Gordon, 
                 D. J. DeFrees and J. A. Pople, J. Chem. Phys. 77, 3654 (1982).
   K - Zn      : V. A. Rassolov, J. A. Pople, M. A. Ratner, and T. L. Windus, J. Chem. Phys. 109, 1223 (1998).

================================================================================
                                        WARNINGS
                       Please study these warnings very carefully!
================================================================================


================================================================================
                                       INPUT FILE
================================================================================
NAME = frag.inp
|  1> !HF 6-31G* EnGrad
|  2> %pal nprocs 1 end
|  3> *xyz 0 1
|  4> O 21.31548000 47.19077000 40.87238000
|  5> H 22.11097000 46.98487000 41.16553000
|  6> H 20.96265000 46.41737000 40.67613000
|  7> O 24.10596000 46.93173000 41.50917000
|  8> H 24.52341000 46.31399000 41.96223000
|  9> H 24.52212000 47.66562000 41.73132000
| 10> O 20.35232000 49.63574000 40.01023000
| 11> H 20.79050000 48.92392000 40.26012000
| 12> H 19.54326000 49.49202000 40.30334000
| 13> O 21.78987000 47.25010000 37.48256000
| 14> H 21.67133000 47.22017000 38.34638000
| 15> H 21.14108000 47.76263000 37.20411000
| 16> *
| 17> 
| 18>                          ****END OF INPUT****
================================================================================

                     *******************************
                     * Energy+Gradient Calculation *
                     *******************************

---------------------------------
CARTESIAN COORDINATES (ANGSTROEM)
---------------------------------
  O     21.315480   47.190770   40.872380
  H     22.110970   46.984870   41.165530
  H     20.962650   46.417370   40.676130
  O     24.105960   46.931730   41.509170
  H     24.523410   46.313990   41.962230
  H     24.522120   47.665620   41.731320
  O     20.352320   49.635740   40.010230
  H     20.790500   48.923920   40.260120
  H     19.543260   49.492020   40.303340
  O     21.789870   47.250100   37.482560
  H     21.671330   47.220170   38.346380
  H     21.141080   47.762630   37.204110

----------------------------
CARTESIAN COORDINATES (A.U.)
----------------------------
  NO LB      ZA    FRAG     MASS         X           Y           Z
   0 O     8.0000    0    15.999   40.280420   89.177631   77.237605
   1 H     1.0000    0     1.008   41.783678   88.788537   77.791578
   2 H     1.0000    0     1.008   39.613668   87.716117   76.866746
   3 O     8.0000    0    15.999   45.553663   88.688117   78.440963
   4 H     1.0000    0     1.008   46.342529   87.520757   79.297123
   5 H     1.0000    0     1.008   46.340091   90.074968   78.860766
   6 O     8.0000    0    15.999   38.460311   93.797955   75.608377
   7 H     1.0000    0     1.008   39.288351   92.452810   76.080601
   8 H     1.0000    0     1.008   36.931409   93.526364   76.162275
   9 O     8.0000    0    15.999   41.176887   89.289749   70.831773
  10 H     1.0000    0     1.008   40.952879   89.233189   72.464156
  11 H     1.0000    0     1.008   39.950851   90.258290   70.305579

--------------------------------
INTERNAL COORDINATES (ANGSTROEM)
--------------------------------
 O      0   0   0     0.000000000000     0.00000000     0.00000000
 H      1   0   0     0.872431127712     0.00000000     0.00000000
 H      1   2   0     0.872439471482   103.59872274     0.00000000
 O      2   1   3     2.025067260439   164.04508453   134.49752923
 H      4   2   1     0.872427976225   125.31625843   188.06283548
 H      4   2   1     0.872430111929   119.41048032    51.16069882
 O      1   2   3     2.765656903703   129.11896367   197.01747687
 H      7   1   2     0.872430190273     9.76862677    18.30230780
 H      7   1   2     0.872437386922    94.16296827   213.12954087
 O      8   7   9     3.393413229022   108.41619438   115.19435551
 H     10   8   7     0.872429096775    33.53678511   194.84682685
 H     10   8   7     0.872439033687    75.66802933   340.40737457

---------------------------
INTERNAL COORDINATES (A.U.)
---------------------------
 O      0   0   0     0.000000000000     0.00000000     0.00000000
 H      1   0   0     1.648655902083     0.00000000     0.00000000
 H      1   2   0     1.648671669524   103.59872274     0.00000000
 O      2   1   3     3.826822524999   164.04508453   134.49752923
 H      4   2   1     1.648649946636   125.31625843   188.06283548
 H      4   2   1     1.648653982532   119.41048032    51.16069882
 O      1   2   3     5.226334128387   129.11896367   197.01747687
 H      7   1   2     1.648654130581     9.76862677    18.30230780
 H      7   1   2     1.648667730277    94.16296827   213.12954087
 O      8   7   9     6.412621662077   108.41619438   115.19435551
 H     10   8   7     1.648652064169    33.53678511   194.84682685
 H     10   8   7     1.648670842211    75.66802933   340.40737457

---------------------
BASIS SET INFORMATION
---------------------
There are 2 groups of distinct atoms

 Group   1 Type O   : 10s4p1d contracted to 3s2p1d pattern {631/31/1}
 Group   2 Type H   : 4s contracted to 2s pattern {31}

Atom   0O    basis set group =>   1
Atom   1H    basis set group =>   2
Atom   2H    basis set group =>   2
Atom   3O    basis set group =>   1
Atom   4H    basis set group =>   2
Atom   5H    basis set group =>   2
Atom   6O    basis set group =>   1
Atom   7H    basis set group =>   2
Atom   8H    basis set group =>   2
Atom   9O    basis set group =>   1
Atom  10H    basis set group =>   2
Atom  11H    basis set group =>   2
------------------------------------------------------------------------------
                             ORCA STARTUP CALCULATIONS
------------------------------------------------------------------------------
------------------------------------------------------------------------------
                   ___                                                        
                  /   \      - P O W E R E D   B Y -                         
                 /     \                                                     
                 |  |  |   _    _      __       _____    __    __             
                 |  |  |  | |  | |    /  \     |  _  \  |  |  /  |          
                  \  \/   | |  | |   /    \    | | | |  |  | /  /          
                 / \  \   | |__| |  /  /\  \   | |_| |  |  |/  /          
                |  |  |   |  __  | /  /__\  \  |    /   |      \           
                |  |  |   | |  | | |   __   |  |    \   |  |\   \          
                \     /   | |  | | |  |  |  |  | |\  \  |  | \   \       
                 \___/    |_|  |_| |__|  |__|  |_| \__\ |__|  \__/        
                                                                              
                      - O R C A' S   B I G   F R I E N D -                    
                                      &                                       
                       - I N T E G R A L  F E E D E R -                       
                                                                              
 v1 FN, 2020, v2 2021, v3 2022-2024                                           
------------------------------------------------------------------------------


----------------------
SHARK INTEGRAL PACKAGE
----------------------

Number of atoms                             ...     12
Number of basis functions                   ...     72
Number of shells                            ...     40
Maximum angular momentum                    ...      2
Integral batch strategy                     ... SHARK/LIBINT Hybrid
RI-J (if used) integral strategy            ... SPLIT-RIJ (Revised 2003 algorithm where possible)
Printlevel                                  ...      1
Contraction scheme used                     ... SEGMENTED contraction
Prescreening option                         ... SCHWARTZ
   Thresh                                   ... 2.500e-11
   Tcut                                     ... 2.500e-12
   Tpresel                                  ... 2.500e-12 
Coulomb Range Separation                    ... NOT USED
Exchange Range Separation                   ... NOT USED
Multipole approximations                    ... NOT USED
Finite Nucleus Model                        ... NOT USED
CABS basis                                  ... NOT available
Auxiliary Coulomb fitting basis             ... NOT available
Auxiliary J/K fitting basis                 ... NOT available
Auxiliary Correlation fitting basis         ... NOT available
Auxiliary 'external' fitting basis          ... NOT available

Checking pre-screening integrals            ... done (  0.0 sec) Dimension = 40
Check shell pair data                       ... done (  0.0 sec)
Shell pair information
Shell pair cut-off parameter TPreSel        ...   2.5e-12
Total number of shell pairs                 ...       820
Shell pairs after pre-screening             ...       740
Total number of primitive shell pairs       ...      4386
Primitive shell pairs kept                  ...      2612
          la=0 lb=0:    367 shell pairs
          la=1 lb=0:    206 shell pairs
          la=1 lb=1:     34 shell pairs
          la=2 lb=0:     96 shell pairs
          la=2 lb=1:     28 shell pairs
          la=2 lb=2:      9 shell pairs

Calculating one electron integrals          ... done (  0.0 sec)
Calculating Nuclear repulsion               ... done (  0.0 sec) ENN=    129.956051720011 Eh

Diagonalization of the overlap matrix:
Smallest eigenvalue                        ... 2.948e-02
Time for diagonalization                   ...    0.001 sec
Threshold for overlap eigenvalues          ... 1.000e-07
Number of eigenvalues below threshold      ... 0
Time for construction of square roots      ...    0.006 sec
Total time needed                          ...    0.013 sec

-------------------
DFT GRID GENERATION
-------------------

General Integration Accuracy     IntAcc      ... 4.388
Radial Grid Type                 RadialGrid  ... OptM3 with GC (2021)
Angular Grid (max. ang.)         AngularGrid ... 4 (Lebedev-302)
Angular grid pruning method      GridPruning ... 4 (adaptive)
Weight generation scheme         WeightScheme... mBecke (2022)
Basis function cutoff            BFCut       ... 1.0000e-11
Integration weight cutoff        WCut        ... 1.0000e-14
Partially contracted basis set               ... off
Rotationally invariant grid construction     ... off
Angular grids for H and He will be reduced by one unit

Total number of grid points                  ...    50680
Total number of batches                      ...      797
Average number of points per batch           ...       63
Average number of grid points per atom       ...     4223
Initializing property integral containers    ... done (  0.0 sec)

SHARK setup successfully completed in   0.5 seconds

Maximum memory used throughout the entire STARTUP-calculation: 17.4 MB
-------------------------------------------------------------------------------
                                 ORCA GUESS
                   Start orbitals & Density for SCF / CASSCF
-------------------------------------------------------------------------------

------------
SCF SETTINGS
------------
Hamiltonian:
 Ab initio Hamiltonian  Method          .... Hartree-Fock(GTOs)


General Settings:
 Integral files         IntName         .... frag
 Hartree-Fock type      HFTyp           .... RHF
 Total Charge           Charge          ....    0
 Multiplicity           Mult            ....    1
 Number of Electrons    NEL             ....   40
 Basis Dimension        Dim             ....   72
 Nuclear Repulsion      ENuc            ....    129.9560517200 Eh

Convergence Acceleration:
 AO-DIIS                CNVDIIS         .... on
   Start iteration      DIISMaxIt       ....    12
   Startup error        DIISStart       ....  0.200000
   # of expansion vecs  DIISMaxEq       ....     5
   Bias factor          DIISBfac        ....   1.050
   Max. coefficient     DIISMaxC        ....  10.000
 MO-DIIS                CNVKDIIS        .... off
 Trust-Rad. Augm. Hess. CNVTRAH         .... auto
   Auto Start mean grad. ratio tolernc. ....  1.125000
   Auto Start start iteration           ....    50
   Auto Start num. interpolation iter.  ....    10
   Max. Number of Micro iterations      ....    24
   Max. Number of Macro iterations      .... Maxiter - #DIIS iter
   Number of Davidson start vectors     ....     2
   Converg. threshold    (grad. norm)   ....   1.000e-05
   Grad. Scal. Fac. for Micro threshold ....   0.100
   Minimum threshold for Micro iter.    ....   1.000e-02
   NR start threshold (gradient norm)   ....   1.000e-04
   Initial trust radius                 ....   0.400
   Minimum AH scaling param. (alpha)    ....   1.000
   Maximum AH scaling param. (alpha)    .... 1000.000
   Quad. conv. algorithm                .... NR
   White noise on init. David. guess    .... on
   Maximum white noise                  ....   0.010
   Pseudo random numbers                .... off
   Inactive MOs                         .... canonical
   Orbital update algorithm             .... Taylor
   Preconditioner                       .... Diag
   Full preconditioner red. dimension   ....   250
 SOSCF                  CNVSOSCF        .... on
   Start iteration      SOSCFMaxIt      ....   150
   Startup grad/error   SOSCFStart      ....  0.003300
   Hessian update       SOSCFHessUp     .... L-BFGS
 Level Shifting         CNVShift        .... on
   Level shift para.    LevelShift      ....    0.2500
   Turn off err/grad.   ShiftErr        ....    0.0010
 Zerner damping         CNVZerner       .... off
 Static damping         CNVDamp         .... on
   Fraction old density DampFac         ....    0.7000
   Max. Damping (<1)    DampMax         ....    0.9800
   Min. Damping (>=0)   DampMin         ....    0.0000
   Turn off err/grad.   DampErr         ....    0.1000

SCF Procedure:
 Maximum # iterations   MaxIter         ....   125
 SCF integral mode      SCFMode         .... Direct
   Integral package                     .... SHARK and LIBINT hybrid scheme
 Reset frequency        DirectResetFreq ....    20
 Integral Threshold     Thresh          ....  2.500e-11 Eh
 Primitive CutOff       TCut            ....  2.500e-12 Eh

Convergence Tolerance:
 Convergence Check Mode ConvCheckMode   .... Total+1el-Energy
 Convergence forced     ConvForced      .... 0
 Energy Change          TolE            ....  1.000e-08 Eh
 1-El. energy change                    ....  1.000e-05 Eh
 Orbital Gradient       TolG            ....  1.000e-05
 Orbital Rotation angle TolX            ....  1.000e-05
 DIIS Error             TolErr          ....  5.000e-07

------------------------------
INITIAL GUESS: MODEL POTENTIAL
------------------------------
Loading Hartree-Fock densities                     ... done
Calculating cut-offs                               ... done
Initializing the effective Hamiltonian             ... done
Setting up the integral package (SHARK)            ... done
Starting the Coulomb interaction                   ... done (   0.0 sec)
Making the grid                                    ... done (   0.1 sec)
Mapping shells                                     ... done
Starting the XC term evaluation                    ... done (   0.0 sec)
Transforming the Hamiltonian                       ... done (   0.0 sec)
Diagonalizing the Hamiltonian                      ... done (   0.0 sec)
Back transforming the eigenvectors                 ... done (   0.0 sec)
Now organizing SCF variables                       ... done
                      ------------------
                      INITIAL GUESS DONE (   0.2 sec)
                      ------------------
             **** ENERGY FILE WAS UPDATED (frag.en.tmp) ****
Finished Guess after   0.2 sec
Maximum memory used throughout the entire GUESS-calculation: 7.4 MB

-------------------------------------------------------------------------------------------
                                      ORCA LEAN-SCF
                              memory conserving SCF solver
-------------------------------------------------------------------------------------------

----------------------------------------D-I-I-S--------------------------------------------
Iteration    Energy (Eh)           Delta-E    RMSDP     MaxDP     DIISErr   Damp  Time(sec)
-------------------------------------------------------------------------------------------
               ***  Starting incremental Fock matrix formation  ***
    1    -303.6115830131833491     0.00e+00  6.10e-03  7.38e-02  3.32e-01  0.700   0.3
    2    -303.7622864643790308    -1.51e-01  4.15e-03  5.09e-02  2.03e-01  0.700   0.2
                               ***Turning on AO-DIIS***
    3    -303.8439984364553084    -8.17e-02  1.67e-03  2.21e-02  1.14e-01  0.700   0.2
    4    -303.8934722877239665    -4.95e-02  1.03e-03  1.42e-02  7.77e-02  0.700   0.2
    5    -303.9261918362549295    -3.27e-02  2.43e-03  3.37e-02  5.52e-02  0.000   0.2
                              *** Initializing SOSCF ***
---------------------------------------S-O-S-C-F--------------------------------------
Iteration    Energy (Eh)           Delta-E    RMSDP     MaxDP     MaxGrad    Time(sec)
--------------------------------------------------------------------------------------
    6    -303.9991974512507795    -7.30e-02  1.93e-04  2.19e-03  3.18e-03     0.2
               *** Restarting incremental Fock matrix formation ***
    7    -303.9992589304331432    -6.15e-05  1.15e-04  1.12e-03  6.75e-04     0.2
    8    -303.9992708562812140    -1.19e-05  8.05e-05  7.63e-04  2.49e-04     0.1
    9    -303.9992729770674487    -2.12e-06  1.18e-05  1.10e-04  7.46e-05     0.2
   10    -303.9992731022801991    -1.25e-07  1.50e-06  1.82e-05  9.93e-06     0.2
   11    -303.9992731046305607    -2.35e-09  6.66e-07  9.60e-06  2.66e-06     0.1
                 **** Energy Check signals convergence ****

               *****************************************************
               *                     SUCCESS                       *
               *           SCF CONVERGED AFTER  11 CYCLES          *
               *****************************************************

             **** ENERGY FILE WAS UPDATED (frag.en.tmp) ****

----------------
TOTAL SCF ENERGY
----------------

Total Energy       :       -303.99927310463056 Eh           -8272.24077 eV

Components:
Nuclear Repulsion  :        129.95605172001135 Eh            3536.28395 eV
Electronic Energy  :       -433.95532482464193 Eh          -11808.52472 eV
One Electron Energy:       -677.62611591367738 Eh          -18439.14404 eV
Two Electron Energy:        243.67079108903545 Eh            6630.61932 eV

Virial components:
Potential Energy   :       -609.54245948717903 Eh          -16586.49356 eV
Kinetic Energy     :        305.54318638254853 Eh            8314.25279 eV
Virial Ratio       :          1.99494698835802

---------------
SCF CONVERGENCE
---------------

  Last Energy change         ...    2.3504e-09  Tolerance :   1.0000e-08
  Last MAX-Density change    ...    9.5980e-06  Tolerance :   1.0000e-07
  Last RMS-Density change    ...    6.6595e-07  Tolerance :   5.0000e-09
  Last DIIS Error            ...    3.1758e-03  Tolerance :   5.0000e-07
  Last Orbital Gradient      ...    2.6650e-06  Tolerance :   1.0000e-05
  Last Orbital Rotation      ...    3.1043e-06  Tolerance :   1.0000e-05


----------------
ORBITAL ENERGIES
----------------

  NO   OCC          E(Eh)            E(eV) 
   0   2.0000     -20.575354      -559.8838 
   1   2.0000     -20.556484      -559.3704 
   2   2.0000     -20.516025      -558.2694 
   3   2.0000     -20.503175      -557.9198 
   4   2.0000      -1.428900       -38.8823 
   5   2.0000      -1.410665       -38.3861 
   6   2.0000      -1.369625       -37.2694 
   7   2.0000      -1.358777       -36.9742 
   8   2.0000      -0.790273       -21.5044 
   9   2.0000      -0.775786       -21.1102 
  10   2.0000      -0.733520       -19.9601 
  11   2.0000      -0.728767       -19.8308 
  12   2.0000      -0.636567       -17.3219 
  13   2.0000      -0.612891       -16.6776 
  14   2.0000      -0.569314       -15.4918 
  15   2.0000      -0.550976       -14.9928 
  16   2.0000      -0.542291       -14.7565 
  17   2.0000      -0.524744       -14.2790 
  18   2.0000      -0.484233       -13.1766 
  19   2.0000      -0.473900       -12.8955 
  20   0.0000       0.193163         5.2562 
  21   0.0000       0.224716         6.1148 
  22   0.0000       0.282727         7.6934 
  23   0.0000       0.293337         7.9821 
  24   0.0000       0.302568         8.2333 
  25   0.0000       0.377613        10.2754 
  26   0.0000       0.417717        11.3667 
  27   0.0000       0.478834        13.0297 
  28   0.0000       0.992604        27.0101 
  29   0.0000       1.037168        28.2228 
  30   0.0000       1.074126        29.2285 
*Only the first 10 virtual orbitals were printed.

                    ********************************
                    * MULLIKEN POPULATION ANALYSIS *
                    ********************************

-----------------------
MULLIKEN ATOMIC CHARGES
-----------------------
   0 O :   -0.944418
   1 H :    0.506466
   2 H :    0.447682
   3 O :   -0.894459
   4 H :    0.454773
   5 H :    0.460049
   6 O :   -0.949554
   7 H :    0.505731
   8 H :    0.429718
   9 O :   -0.909671
  10 H :    0.448793
  11 H :    0.444890
Sum of atomic charges:    0.0000000

--------------------------------
MULLIKEN REDUCED ORBITAL CHARGES
--------------------------------
  0 O s       :     3.852820  s :     3.852820
      pz      :     1.904719  p :     5.060436
      px      :     1.546155
      py      :     1.609562
      dz2     :     0.004243  d :     0.031162
      dxz     :     0.002779
      dyz     :     0.003758
      dx2y2   :     0.011906
      dxy     :     0.008476

  1 H s       :     0.493534  s :     0.493534

  2 H s       :     0.552318  s :     0.552318

  3 O s       :     3.842109  s :     3.842109
      pz      :     1.852601  p :     5.020479
      px      :     1.790417
      py      :     1.377461
      dz2     :     0.003007  d :     0.031871
      dxz     :     0.006561
      dyz     :     0.008589
      dx2y2   :     0.000733
      dxy     :     0.012981

  4 H s       :     0.545227  s :     0.545227

  5 H s       :     0.539951  s :     0.539951

  6 O s       :     3.853653  s :     3.853653
      pz      :     1.915942  p :     5.063238
      px      :     1.421440
      py      :     1.725857
      dz2     :     0.003446  d :     0.032663
      dxz     :     0.006104
      dyz     :     0.005404
      dx2y2   :     0.009696
      dxy     :     0.008013

  7 H s       :     0.494269  s :     0.494269

  8 H s       :     0.570282  s :     0.570282

  9 O s       :     3.848029  s :     3.848029
      pz      :     1.463537  p :     5.028603
      px      :     1.734921
      py      :     1.830144
      dz2     :     0.015022  d :     0.033039
      dxz     :     0.004367
      dyz     :     0.001150
      dx2y2   :     0.002618
      dxy     :     0.009883

 10 H s       :     0.551207  s :     0.551207

 11 H s       :     0.555110  s :     0.555110



                     *******************************
                     * LOEWDIN POPULATION ANALYSIS *
                     *******************************

----------------------
LOEWDIN ATOMIC CHARGES
----------------------
   0 O :   -0.614912
   1 H :    0.313999
   2 H :    0.317301
   3 O :   -0.608332
   4 H :    0.319385
   5 H :    0.322957
   6 O :   -0.647200
   7 H :    0.301358
   8 H :    0.308478
   9 O :   -0.633519
  10 H :    0.306143
  11 H :    0.314343

-------------------------------
LOEWDIN REDUCED ORBITAL CHARGES
-------------------------------
  0 O s       :     3.538413  s :     3.538413
      pz      :     1.902465  p :     5.037831
      px      :     1.525635
      py      :     1.609731
      dz2     :     0.004854  d :     0.038668
      dxz     :     0.003432
      dyz     :     0.004426
      dx2y2   :     0.015076
      dxy     :     0.010880

  1 H s       :     0.686001  s :     0.686001

  2 H s       :     0.682699  s :     0.682699

  3 O s       :     3.546616  s :     3.546616
      pz      :     1.857858  p :     5.021441
      px      :     1.789844
      py      :     1.373740
      dz2     :     0.003571  d :     0.040275
      dxz     :     0.006981
      dyz     :     0.011116
      dx2y2   :     0.001645
      dxy     :     0.016962

  4 H s       :     0.680615  s :     0.680615

  5 H s       :     0.677043  s :     0.677043

  6 O s       :     3.544184  s :     3.544184
      pz      :     1.919083  p :     5.062706
      px      :     1.425086
      py      :     1.718537
      dz2     :     0.003957  d :     0.040310
      dxz     :     0.007748
      dyz     :     0.005608
      dx2y2   :     0.012775
      dxy     :     0.010222

  7 H s       :     0.698642  s :     0.698642

  8 H s       :     0.691522  s :     0.691522

  9 O s       :     3.551554  s :     3.551554
      pz      :     1.464201  p :     5.040580
      px      :     1.742693
      py      :     1.833686
      dz2     :     0.019669  d :     0.041385
      dxz     :     0.005477
      dyz     :     0.001605
      dx2y2   :     0.002707
      dxy     :     0.011927

 10 H s       :     0.693857  s :     0.693857

 11 H s       :     0.685657  s :     0.685657



                      *****************************
                      * MAYER POPULATION ANALYSIS *
                      *****************************

  NA   - Mulliken gross atomic population
  ZA   - Total nuclear charge
  QA   - Mulliken gross atomic charge
  VA   - Mayer's total valence
  BVA  - Mayer's bonded valence
  FA   - Mayer's free valence

  ATOM       NA         ZA         QA         VA         BVA        FA
  0 O      8.9444     8.0000    -0.9444     1.5366     1.5366     0.0000
  1 H      0.4935     1.0000     0.5065     0.7316     0.7316     0.0000
  2 H      0.5523     1.0000     0.4477     0.7677     0.7677     0.0000
  3 O      8.8945     8.0000    -0.8945     1.5768     1.5768     0.0000
  4 H      0.5452     1.0000     0.4548     0.7592     0.7592     0.0000
  5 H      0.5400     1.0000     0.4600     0.7555     0.7555     0.0000
  6 O      8.9496     8.0000    -0.9496     1.4965     1.4965    -0.0000
  7 H      0.4943     1.0000     0.5057     0.7284     0.7284    -0.0000
  8 H      0.5703     1.0000     0.4297     0.7817     0.7817     0.0000
  9 O      8.9097     8.0000    -0.9097     1.5316     1.5316     0.0000
 10 H      0.5512     1.0000     0.4488     0.7806     0.7806     0.0000
 11 H      0.5551     1.0000     0.4449     0.7686     0.7686     0.0000

  Mayer bond orders larger than 0.100000
B(  0-O ,  1-H ) :   0.6913 B(  0-O ,  2-H ) :   0.7726 B(  3-O ,  4-H ) :   0.7671 
B(  3-O ,  5-H ) :   0.7634 B(  6-O ,  7-H ) :   0.6980 B(  6-O ,  8-H ) :   0.7900 
B(  9-O , 10-H ) :   0.7532 B(  9-O , 11-H ) :   0.7770 

-------
TIMINGS
-------

Total SCF time: 0 days 0 hours 0 min 2 sec 

Total time                  ....       2.189 sec
Sum of individual times     ....       2.113 sec  ( 96.5%)

SCF preparation             ....       0.067 sec  (  3.1%)
Fock matrix formation       ....       1.741 sec  ( 79.5%)
  Startup                   ....       0.029 sec  (  1.7% of F)
  Coulomb+Exchange Fock     ....       1.650 sec  ( 94.8% of F)
Diagonalization             ....       0.000 sec  (  0.0%)
Density matrix formation    ....       0.078 sec  (  3.6%)
Total Energy calculation    ....       0.031 sec  (  1.4%)
Population analysis         ....       0.015 sec  (  0.7%)
Orbital Transformation      ....       0.013 sec  (  0.6%)
Orbital Orthonormalization  ....       0.000 sec  (  0.0%)
DIIS solution               ....       0.121 sec  (  5.5%)
SOSCF solution              ....       0.048 sec  (  2.2%)
Finished LeanSCF after   2.2 sec

Maximum memory used throughout the entire LEANSCF-calculation: 8.3 MB

-------------------------   --------------------
FINAL SINGLE POINT ENERGY      -303.999273104631
-------------------------   --------------------

------------------------------------------------------------------------------
                         ORCA SCF GRADIENT CALCULATION
------------------------------------------------------------------------------

Nuc. rep. gradient        (SHARK) ... done (  0.0 sec)
HCore & Overlap gradient  (SHARK) ... done (  0.0 sec)
Two-electron gradient     (SHARK) ... done (  0.6 sec)

------------------
CARTESIAN GRADIENT
------------------

   1   O   :    0.057845970   -0.107592376    0.013721740
   2   H   :   -0.114126298    0.015382048   -0.040734506
   3   H   :    0.054818193    0.096707983    0.027679049
   4   O   :    0.097184095    0.015860802    0.076239115
   5   H   :   -0.049130158    0.087518562   -0.054956767
   6   H   :   -0.047957535   -0.102167303   -0.022082791
   7   O   :   -0.039591961   -0.105637980    0.068175962
   8   H   :   -0.064244890    0.090446523   -0.030874452
   9   H   :    0.105556932    0.011172831   -0.035378392
  10   O   :   -0.088055563    0.059460313    0.069318457
  11   H   :    0.007262939    0.005916384   -0.114244450
  12   H   :    0.080438278   -0.067067788    0.043137035

Difference to translation invariance:
           :   -0.0000000000   -0.0000000001   -0.0000000000

Difference to rotation invariance:
           :   -0.0000003031   -0.0000000433    0.0000005902

Norm of the Cartesian gradient     ...    0.4125539591
RMS gradient                       ...    0.0687589932
MAX gradient                       ...    0.1142444502

-------
TIMINGS
-------

Total SCF gradient time     ....        0.600 sec

Densities                   ....       0.000 sec  (  0.0%)
One electron gradient       ....       0.038 sec  (  6.4%)
Two electron gradient       ....       0.562 sec  ( 93.6%)

Maximum memory used throughout the entire SCFGRAD-calculation: 14.1 MB

------------------------------------------------------------------------------
                              ORCA PROPERTY CALCULATIONS
------------------------------------------------------------------------------

GBWName                                 ... frag.gbw
Number of atoms                         ...     12
Number of basis functions               ...     72
Max core memory                         ...   1024 MB

Electric properties:
Dipole moment                           ... YES
Quadrupole moment                       ...  NO
Static polarizability (Dipole/Dipole)   ...  NO
Static polarizability (Dipole/Quad.)    ...  NO
Static polarizability (Quad./Quad.)     ...  NO
Static polarizability (Velocity)        ...  NO

Atomic electric properties:
Dipole moment                           ...  NO
Quadrupole moment                       ...  NO
Static polarizability                   ...  NO

Choice of electric origin               ... Center of mass
Position of electric origin             ...    41.371469    90.205688    75.579917

General magnetic properties:
Magnetizability                         ...  NO

EPR properties:
g-Tensor (aka g-matrix)                 ...  NO
Zero-Field splitting spin-orbit         ...  NO
Zero-field splitting spin-spin          ...  NO
Hyperfine couplings                     ...  NO (   0 nuclei)
Quadrupole couplings                    ...  NO (   0 nuclei)
Contact density                         ...  NO (   0 nuclei)

NMR properties:
Chemical shifts                         ...  NO (   0 nuclei)
Spin-rotation constants                 ...  NO (   0 nuclei)
Spin-spin couplings                     ...  NO (   0 nuclei,    0 pairs)

Choice of magnetic origin               ... GIAO
Position of magnetic origin             ...     0.000000     0.000000     0.000000

Properties with geometric perturbations:
SCF Hessian                             ...  NO
IR spectrum                             ...  NO
VCD spectrum                            ...  NO
X-ray spectroscopy properties:
SCF XES/XAS/RIXS spectra                ...  NO


-------------
DIPOLE MOMENT
-------------

Method             : SCF
Type of density    : Electron Density
Multiplicity       :   1
Irrep              :   0
Energy             :  -303.9992731046305607 Eh
Relativity type    : 
Basis              : AO
                                X                 Y                 Z
Electronic contribution:      0.242775933      -0.079777993       0.093364758
Nuclear contribution   :      0.114915710      -1.028872660       1.581884743
                        -----------------------------------------
Total Dipole Moment    :      0.357691643      -1.108650652       1.675249501
                        -----------------------------------------
Magnitude (a.u.)       :      2.040468199
Magnitude (Debye)      :      5.186457988



--------------------
Rotational spectrum 
--------------------
 
Rotational constants in cm-1:             0.107113             0.062754             0.045213 
Rotational constants in MHz :          3211.176877          1881.317149          1355.447138 

Dipole components along the rotational axes: 
x,y,z [a.u.] :     1.708695     0.551376     0.969461 
x,y,z [Debye]:     4.343159     1.401486     2.464175 

 

Dipole moment calculation done in   0.0 sec 

Maximum memory used throughout the entire PROP-calculation: 2.8 MB

--------------------------------
SUGGESTED CITATIONS FOR THIS RUN
--------------------------------

Below you find a list of papers that are relevant to this ORCA run
We neither can nor want to force you to cite these papers, but we appreciate if you do
You receive ORCA, which is the product of decades of hard work by many enthusiastic individuals, for free
The only thing we kindly ask in return is that you cite our papers,
We deeply appreciate it, if you show your appreciation for ORCA by not just citing the generic ORCA reference.

Please note that relegating all ORCA citations to the supporting information does *not* help us.
SI sections are not indexed - citations you put there will not count into any citation statistics
But we need these citations in order to attract the funding resources that allow us to do what we are doing

Therefore, if you are a happy ORCA user, please consider citing a few of the papers listed below in the main body of your paper

In addition to the list printed below, the program has created the file frag.bibtex that contains the list in bibtex format
You can import this file easily into all common literature databanks and citation aid programs


List of essential papers. We consider these as the minimum necessary citations

  1. Neese,F.
     Software update: the ORCA program system, version 5.0
     WIRES Comput. Molec. Sci., 2022 12(1)e1606
     doi.org/10.1002/wcms.1606

List of papers to cite with high priority. The work reported in these papers was absolutely
necessary for this run to complete.
Our perspective: the developers of density functionals and basis sets usually get cited in chemistry papers
Good! But without the algorithms to do something with them, the functionals or basis sets would not do anything.
Hence, in our opinion, the algorithm design and method developments papers are equally worthy of getting cited

  1. Neese,F.
     The SHARK Integral Generation and Digestion System
     J. Comp. Chem., 2022  1-16
     doi.org/10.1002/jcc.26942

List of suggested additional citations. These are papers that are important in the 'surrounding' of 
of this run, or papers that preceded the highly important papers. If you like your results we are grateful for a citation.

  1. Neese,F.
     The ORCA program system
     WIRES Comput. Molec. Sci., 2012 2(1)73-78
     doi.org/10.1002/wcms.81
  2. Neese,F.
     Software update: the ORCA program system, version 4.0
     WIRES Comput. Molec. Sci., 2018 8(1)1-6
     doi.org/10.1002/wcms.1327
  3. Neese,F.; Wennmohs,F.; Becker,U.; Riplinger,C.
     The ORCA quantum chemistry program package
     J. Chem. Phys., 2020 152 Art. No. L224108
     doi.org/10.1063/5.0004608

List of optional additional citations

  1. Neese,F.
     Approximate second-order SCF convergence for spin unrestricted wavefunctions
     Chem. Phys. Lett., 2000 325(1-3)93-98
     doi.org/10.1016/s0009-2614(00)00662-x

Timings for individual modules:

Sum of individual times          ...        3.779 sec (=   0.063 min)
Startup calculation              ...        0.547 sec (=   0.009 min)  14.5 %
SCF iterations                   ...        2.502 sec (=   0.042 min)  66.2 %
Property calculations            ...        0.056 sec (=   0.001 min)   1.5 %
SCF Gradient evaluation          ...        0.674 sec (=   0.011 min)  17.8 %
                             ****ORCA TERMINATED NORMALLY****
TOTAL RUN TIME: 0 days 0 hours 0 minutes 3 seconds 996 msec
