
                                 *****************
                                 * O   R   C   A *
                                 *****************

                                            #,                                       
                                            ###                                      
                                            ####                                     
                                            #####                                    
                                            ######                                   
                                           ########,                                 
                                     ,,################,,,,,                         
                               ,,#################################,,                 
                          ,,##########################################,,             
                       ,#########################################, ''#####,          
                    ,#############################################,,   '####,        
                  ,##################################################,,,,####,       
                ,###########''''           ''''###############################       
              ,#####''   ,,,,##########,,,,          '''####'''          '####       
            ,##' ,,,,###########################,,,                        '##       
           ' ,,###''''                  '''############,,,                           
         ,,##''                                '''############,,,,        ,,,,,,###''
      ,#''                                            '''#######################'''  
     '                                                          ''''####''''         
             ,#######,   #######,   ,#######,      ##                                
            ,#'     '#,  ##    ##  ,#'     '#,    #''#        ,####,   ,####,        
            ##       ##  ##   ,#'  ##            #'  '#       #'       #'  '#        
            ##       ##  #######   ##           ,######,      #####,   #    #        
            '#,     ,#'  ##    ##  '#,     ,#' ,#      #,     #,   #   #,  ,#        
             '#######'   ##     ##  '#######'  #'      '#     '####' # '####'        



                #########################################################
                #                        -***-                          #
                #          Department of theory and spectroscopy        #
                #                                                       #
                #                      Frank Neese                      #
                #                                                       #
                #     Directorship, Architecture, Infrastructure        #
                #                    SHARK, DRIVERS                     #
                #        Core code/Algorithms in most modules           #
                #                                                       #
                #        Max Planck Institute fuer Kohlenforschung      #
                #                Kaiser Wilhelm Platz 1                 #
                #                 D-45470 Muelheim/Ruhr                 #
                #                      Germany                          #
                #                                                       #
                #                  All rights reserved                  #
                #                        -***-                          #
                #########################################################


                         Program Version 6.0.1  -  RELEASE   -


 With contributions from (in alphabetic order):
[Max-Planck-Institut fuer Kohlenforschung]                               
  Daniel Aravena         : Magnetic Suceptibility                        
  Michael Atanasov       : Ab Initio Ligand Field Theory (pilot matlab implementation)
  Alexander A. Auer      : GIAO ZORA, VPT2 properties, NMR spectrum      
  Ute Becker             : All parallelization in ORCA, NUMFREQ, NUMCALC 
  Giovanni Bistoni       : ED, misc. LED, open-shell LED, HFLD           
  Martin Brehm           : Molecular dynamics                            
  Dmytro Bykov           : pre 5.0 version of the SCF Hessian            
  Marcos Casanova-Páez   : Triplet and SCS-CIS(D). UHF-(DLPNO)-IP/EA/STEOM-CCSD. UHF-CVS-IP/STEOM-CCSD   
  Vijay G. Chilkuri      : MRCI spin determinant printing, contributions to CSF-ICE 
  Pauline Colinet        : FMM embedding                                 
  Dipayan Datta          : RHF DLPNO-CCSD density                        
  Achintya Kumar Dutta   : EOM-CC, STEOM-CC                              
  Nicolas Foglia         : Exact transition moments, OPA infrastructure, MCD improvements    
  Dmitry Ganyushin       : Spin-Orbit,Spin-Spin,Magnetic field MRCI      
  Miquel Garcia-Rates    : C-PCM and meta-GGA Hessian, CCSD/C-PCM, Gaussian charge scheme 
  Tiago L. C. Gouveia    : GS-ROHF, GS-ROCIS                             
  Yang Guo               : DLPNO-NEVPT2, F12-NEVPT2, CIM, IAO-localization        
  Andreas Hansen         : Spin unrestricted coupled pair/coupled cluster methods 
  Ingolf Harden          : AUTO-CI MPn and infrastructure                
  Benjamin Helmich-Paris : MC-RPA, TRAH-(SCF,CASSCF), AVAS, COSX integrals, SCF dyn. polar. 
  Lee Huntington         : MR-EOM, pCC                                   
  Robert Izsak           : Overlap fitted RIJCOSX, COSX-SCS-MP3, EOM     
  Riya Kayal             : Wick's Theorem for AUTO-CI, AUTO-CI UHF-CCSDT 
  Emily Kempfer          : AUTO-CI, RHF CISDT and CCSDT                  
  Christian Kollmar      : KDIIS, OOCD, Brueckner-CCSD(T), CCSD density, CASPT2, CASPT2-K, improved NEVPT2 
  Axel Koslowski         : Symmetry handling                             
  Simone Kossmann        : meta-GGA functionals, TD-DFT gradient, OOMP2, (MP2 Hessian; deprecated post 5.0) 
  Lucas Lang             : DCDCAS                                        
  Marvin Lechner         : AUTO-CI (C++ implementation), FIC-MRCC        
  Spencer Leger          : CASSCF response                               
  Dagmar Lenk            : GEPOL surface, SMD, ORCA-2-JSON               
  Dimitrios Liakos       : Extrapolation schemes; Compound Job, initial MDCI parallelization 
  Dimitrios Manganas     : Further ROCIS development; embedding schemes. LFT, Crystal Embedding 
  Dimitrios Pantazis     : SARC Basis sets                               
  Anastasios Papadopoulos: AUTO-CI, single reference methods and gradients 
  Taras Petrenko         : pre 6.0 DFT Hessian and TD-DFT gradient, (ASA, deprecated), ECA, 1-Electron XAS/XES, NRVS 
  Peter Pinski           : DLPNO-MP2, DLPNO-MP2 Gradient                 
  Christoph Reimann      : Effective Core Potentials                     
  Marius Retegan         : Local ZFS, SOC                                
  Christoph Riplinger    : Optimizer, TS searches, QM/MM, DLPNO-CCSD(T), (RO)-DLPNO pert. Triples 
  Michael Roemelt        : Original ROCIS implementation                 
  Masaaki Saitow         : Open-shell DLPNO-CCSD energy and density      
  Barbara Sandhoefer     : DKH picture change effects                    
  Kantharuban Sivalingam : CASSCF convergence/infrastructure, NEVPT2 and variants, FIC-MRCI 
  Bernardo de Souza      : ESD, SOC TD-DFT                               
  Georgi L. Stoychev     : AutoAux, RI-MP2 NMR, DLPNO-MP2 response, X2C  
  Van Anh Tran           : RI-MP2 g-tensors                              
  Willem Van den Heuvel  : Paramagnetic NMR                              
  Zikuan Wang            : NOTCH, Electric field optimization            
  Frank Wennmohs         : Technical directorship and infrastructure     
  Hang Xu                : AUTO-CI-Response properties                   
                                                                         
[FACCTs GmbH]                                                            
  Markus Bursch, Miquel Garcia-Rates, Christoph Riplinger, Bernardo de Souza, Georgi L. Stoychev 
                                                                 
  APM, Basis sets (HGBS, AHGBS, def-TZVP (Ac-Lr), def2-XVPD (La-Lu)), CI-OPT, improved COSX, DLPNO-Multilevel,           
  DOCKER, DRACO, updates on ESD, GOAT, IRC, LR-CPCM, MBIS, meta-GGA TD-DFT gradient, ML-optimized integration grids, 
  MM, NACMEs, nearIR, NEB, NEB-TS, NL-DFT gradient (VV10), 2- and 3-layer-ONIOM, interface openCOSMO-RS, QMMM,   
  Crystal-QMMM, SF, symmetry and pop. for TD-DFT, r2SCAN hybrids, SOLVATOR                                   
                                                                         
[Other institutions]                                                     
  V. Asgeirsson          : NEB                                           
  Christoph Bannwarth    : sTDA-DFT, sTD-DFT, PBEh-3c, B97-3c, D3        
  Sebastian Ehlert       : rSCAN, r2SCAN, r2SCAN-3c, D4, dhf basis sets  
  Marvin Friede          : D4 for Fr, Ra, Ac-Lr                          
  Lars Goerigk           : TD-DFT with DH, B97 family of functionals     
  Stefan Grimme          : VdW corrections, initial TS optimization, DFT functionals, gCP, sTDA/sTD-DF 
  Waldemar Hujo          : DFT-NL                                        
  H. Jonsson             : NEB                                           
  Holger Kruse           : gCP                                           
  Marcel Mueller         : wB97X-3c, vDZP basis set                      
  Hagen Neugebauer       : wr2SCAN                                       
  Tobias Risthaus        : range-separated hybrid DFT                    
  Lukas Wittmann         : regularized MP2, r2SCAN double-hybrids, wr2SCAN        
                                                                         
We gratefully acknowledge several colleagues who have allowed us to      
interface, adapt or use parts of their codes:                            
  Ed Valeev, F. Pavosevic, A. Kumar             : LibInt (2-el integral package), F12 methods 
  Garnet Chan, S. Sharma, J. Yang, R. Olivares  : DMRG                   
  Ulf Ekstrom                                   : XCFun DFT Library      
  Mihaly Kallay                                 : mrcc  (arbitrary order and MRCC methods)
  Frank Weinhold                                : gennbo (NPA and NBO analysis)           
  Simon Mueller                                 : openCOSMO-RS                            
  Christopher J. Cramer and Donald G. Truhlar   : smd solvation model                     
  S Lehtola, MJT Oliveira, MAL Marques          : LibXC Library                           
  Liviu Ungur et al                             : ANISO software                          


 Your calculation uses the libint2 library for the computation of 2-el integrals
 For citations please refer to: http://libint.valeyev.net

 Your ORCA version has been built with support for libXC version: 6.2.2
 For citations please refer to: https://libxc.gitlab.io

 This ORCA versions uses:
   CBLAS   interface :  Fast vector & matrix operations
   LAPACKE interface :  Fast linear algebra routines
   SCALAPACK package :  Parallel linear algebra routines
   Shared memory     :  Shared parallel matrices
   BLAS/LAPACK       :  OpenBLAS 0.3.27  USE64BITINT DYNAMIC_ARCH NO_AFFINITY SkylakeX SINGLE_THREADED
        Core in use  :  SkylakeX
   Copyright (c) 2011-2014, The OpenBLAS Project


================================================================================

----- Orbital basis set information -----
Your calculation utilizes the basis: 6-31G*
   H-He, Li-Ne : W. J. Hehre, R. Ditchfield and J.A. Pople, J. Chem. Phys. 56, 2257 (1972).
                 Note: He and Ne are unpublished basis sets taken from the Gaussian program.
                 Note: Li and B from J. D. Dill and J. A. Pople, J. Chem. Phys. 62, 2921 (1975).
   Na - Ar     : M. M. Francl, W. J. Pietro, W. J. Hehre, J. S. Binkley, M. S. Gordon, 
                 D. J. DeFrees and J. A. Pople, J. Chem. Phys. 77, 3654 (1982).
   K - Zn      : V. A. Rassolov, J. A. Pople, M. A. Ratner, and T. L. Windus, J. Chem. Phys. 109, 1223 (1998).

================================================================================
                                        WARNINGS
                       Please study these warnings very carefully!
================================================================================


================================================================================
                                       INPUT FILE
================================================================================
NAME = frag.inp
|  1> !HF 6-31G* EnGrad
|  2> %pal nprocs 1 end
|  3> *xyz 0 1
|  4> O 24.10596000 46.93173000 41.50917000
|  5> H 24.52341000 46.31399000 41.96223000
|  6> H 24.52212000 47.66562000 41.73132000
|  7> O 21.78987000 47.25010000 37.48256000
|  8> H 21.67133000 47.22017000 38.34638000
|  9> H 21.14108000 47.76263000 37.20411000
| 10> O 19.10373000 45.58535000 40.48424000
| 11> H 18.38270000 45.25544000 40.12036000
| 12> H 18.82331000 45.89664000 41.24949000
| 13> O 22.25294000 44.28778000 39.87163000
| 14> H 22.68414000 43.83080000 40.47691000
| 15> H 22.81575000 44.91633000 39.64956000
| 16> *
| 17> 
| 18>                          ****END OF INPUT****
================================================================================

                     *******************************
                     * Energy+Gradient Calculation *
                     *******************************

---------------------------------
CARTESIAN COORDINATES (ANGSTROEM)
---------------------------------
  O     24.105960   46.931730   41.509170
  H     24.523410   46.313990   41.962230
  H     24.522120   47.665620   41.731320
  O     21.789870   47.250100   37.482560
  H     21.671330   47.220170   38.346380
  H     21.141080   47.762630   37.204110
  O     19.103730   45.585350   40.484240
  H     18.382700   45.255440   40.120360
  H     18.823310   45.896640   41.249490
  O     22.252940   44.287780   39.871630
  H     22.684140   43.830800   40.476910
  H     22.815750   44.916330   39.649560

----------------------------
CARTESIAN COORDINATES (A.U.)
----------------------------
  NO LB      ZA    FRAG     MASS         X           Y           Z
   0 O     8.0000    0    15.999   45.553663   88.688117   78.440963
   1 H     1.0000    0     1.008   46.342529   87.520757   79.297123
   2 H     1.0000    0     1.008   46.340091   90.074968   78.860766
   3 O     8.0000    0    15.999   41.176887   89.289749   70.831773
   4 H     1.0000    0     1.008   40.952879   89.233189   72.464156
   5 H     1.0000    0     1.008   39.950851   90.258290   70.305579
   6 O     8.0000    0    15.999   36.100818   86.143827   76.504126
   7 H     1.0000    0     1.008   34.738269   85.520388   75.816493
   8 H     1.0000    0     1.008   35.570901   86.732080   77.950239
   9 O     8.0000    0    15.999   42.051962   83.691775   75.346461
  10 H     1.0000    0     1.008   42.866812   82.828208   76.490275
  11 H     1.0000    0     1.008   43.115519   84.879563   74.926810

--------------------------------
INTERNAL COORDINATES (ANGSTROEM)
--------------------------------
 O      0   0   0     0.000000000000     0.00000000     0.00000000
 H      1   0   0     0.872427976225     0.00000000     0.00000000
 H      1   2   0     0.872430111929   103.60043743     0.00000000
 O      1   2   3     4.656094977242   137.35234498   150.46640271
 H      4   1   2     0.872429096775    37.71829684   105.15642469
 H      4   1   2     0.872439033687   133.32203144   151.43797541
 O      5   4   1     3.719630569290   132.68352841   218.37957426
 H      7   5   4     0.872429666735   119.79994743   348.29022196
 H      7   5   4     0.872435901944   124.69375762   211.73664810
 O      5   4   1     3.356124083925   117.15578849   289.08001104
 H     10   5   4     0.872426523439   149.16283161   122.62062527
 H     10   5   4     0.872436406565    50.70030800    83.72012381

---------------------------
INTERNAL COORDINATES (A.U.)
---------------------------
 O      0   0   0     0.000000000000     0.00000000     0.00000000
 H      1   0   0     1.648649946636     0.00000000     0.00000000
 H      1   2   0     1.648653982532   103.60043743     0.00000000
 O      1   2   3     8.798744360514   137.35234498   150.46640271
 H      4   1   2     1.648652064169    37.71829684   105.15642469
 H      4   1   2     1.648670842211   133.32203144   151.43797541
 O      5   4   1     7.029083095321   132.68352841   218.37957426
 H      7   5   4     1.648653141238   119.79994743   348.29022196
 H      7   5   4     1.648664924074   124.69375762   211.73664810
 O      5   4   1     6.342155390075   117.15578849   289.08001104
 H     10   5   4     1.648647201269   149.16283161   122.62062527
 H     10   5   4     1.648665877670    50.70030800    83.72012381

---------------------
BASIS SET INFORMATION
---------------------
There are 2 groups of distinct atoms

 Group   1 Type O   : 10s4p1d contracted to 3s2p1d pattern {631/31/1}
 Group   2 Type H   : 4s contracted to 2s pattern {31}

Atom   0O    basis set group =>   1
Atom   1H    basis set group =>   2
Atom   2H    basis set group =>   2
Atom   3O    basis set group =>   1
Atom   4H    basis set group =>   2
Atom   5H    basis set group =>   2
Atom   6O    basis set group =>   1
Atom   7H    basis set group =>   2
Atom   8H    basis set group =>   2
Atom   9O    basis set group =>   1
Atom  10H    basis set group =>   2
Atom  11H    basis set group =>   2
------------------------------------------------------------------------------
                             ORCA STARTUP CALCULATIONS
------------------------------------------------------------------------------
------------------------------------------------------------------------------
                   ___                                                        
                  /   \      - P O W E R E D   B Y -                         
                 /     \                                                     
                 |  |  |   _    _      __       _____    __    __             
                 |  |  |  | |  | |    /  \     |  _  \  |  |  /  |          
                  \  \/   | |  | |   /    \    | | | |  |  | /  /          
                 / \  \   | |__| |  /  /\  \   | |_| |  |  |/  /          
                |  |  |   |  __  | /  /__\  \  |    /   |      \           
                |  |  |   | |  | | |   __   |  |    \   |  |\   \          
                \     /   | |  | | |  |  |  |  | |\  \  |  | \   \       
                 \___/    |_|  |_| |__|  |__|  |_| \__\ |__|  \__/        
                                                                              
                      - O R C A' S   B I G   F R I E N D -                    
                                      &                                       
                       - I N T E G R A L  F E E D E R -                       
                                                                              
 v1 FN, 2020, v2 2021, v3 2022-2024                                           
------------------------------------------------------------------------------


----------------------
SHARK INTEGRAL PACKAGE
----------------------

Number of atoms                             ...     12
Number of basis functions                   ...     72
Number of shells                            ...     40
Maximum angular momentum                    ...      2
Integral batch strategy                     ... SHARK/LIBINT Hybrid
RI-J (if used) integral strategy            ... SPLIT-RIJ (Revised 2003 algorithm where possible)
Printlevel                                  ...      1
Contraction scheme used                     ... SEGMENTED contraction
Prescreening option                         ... SCHWARTZ
   Thresh                                   ... 2.500e-11
   Tcut                                     ... 2.500e-12
   Tpresel                                  ... 2.500e-12 
Coulomb Range Separation                    ... NOT USED
Exchange Range Separation                   ... NOT USED
Multipole approximations                    ... NOT USED
Finite Nucleus Model                        ... NOT USED
CABS basis                                  ... NOT available
Auxiliary Coulomb fitting basis             ... NOT available
Auxiliary J/K fitting basis                 ... NOT available
Auxiliary Correlation fitting basis         ... NOT available
Auxiliary 'external' fitting basis          ... NOT available

Checking pre-screening integrals            ... done (  0.0 sec) Dimension = 40
Check shell pair data                       ... done (  0.0 sec)
Shell pair information
Shell pair cut-off parameter TPreSel        ...   2.5e-12
Total number of shell pairs                 ...       820
Shell pairs after pre-screening             ...       691
Total number of primitive shell pairs       ...      4386
Primitive shell pairs kept                  ...      2298
          la=0 lb=0:    341 shell pairs
          la=1 lb=0:    194 shell pairs
          la=1 lb=1:     33 shell pairs
          la=2 lb=0:     86 shell pairs
          la=2 lb=1:     28 shell pairs
          la=2 lb=2:      9 shell pairs

Calculating one electron integrals          ... done (  0.0 sec)
Calculating Nuclear repulsion               ... done (  0.0 sec) ENN=    116.186042743959 Eh

Diagonalization of the overlap matrix:
Smallest eigenvalue                        ... 4.535e-02
Time for diagonalization                   ...    0.001 sec
Threshold for overlap eigenvalues          ... 1.000e-07
Number of eigenvalues below threshold      ... 0
Time for construction of square roots      ...    0.004 sec
Total time needed                          ...    0.009 sec

-------------------
DFT GRID GENERATION
-------------------

General Integration Accuracy     IntAcc      ... 4.388
Radial Grid Type                 RadialGrid  ... OptM3 with GC (2021)
Angular Grid (max. ang.)         AngularGrid ... 4 (Lebedev-302)
Angular grid pruning method      GridPruning ... 4 (adaptive)
Weight generation scheme         WeightScheme... mBecke (2022)
Basis function cutoff            BFCut       ... 1.0000e-11
Integration weight cutoff        WCut        ... 1.0000e-14
Partially contracted basis set               ... off
Rotationally invariant grid construction     ... off
Angular grids for H and He will be reduced by one unit

Total number of grid points                  ...    50866
Total number of batches                      ...      800
Average number of points per batch           ...       63
Average number of grid points per atom       ...     4239
Initializing property integral containers    ... done (  0.0 sec)

SHARK setup successfully completed in   0.5 seconds

Maximum memory used throughout the entire STARTUP-calculation: 17.3 MB
-------------------------------------------------------------------------------
                                 ORCA GUESS
                   Start orbitals & Density for SCF / CASSCF
-------------------------------------------------------------------------------

------------
SCF SETTINGS
------------
Hamiltonian:
 Ab initio Hamiltonian  Method          .... Hartree-Fock(GTOs)


General Settings:
 Integral files         IntName         .... frag
 Hartree-Fock type      HFTyp           .... RHF
 Total Charge           Charge          ....    0
 Multiplicity           Mult            ....    1
 Number of Electrons    NEL             ....   40
 Basis Dimension        Dim             ....   72
 Nuclear Repulsion      ENuc            ....    116.1860427440 Eh

Convergence Acceleration:
 AO-DIIS                CNVDIIS         .... on
   Start iteration      DIISMaxIt       ....    12
   Startup error        DIISStart       ....  0.200000
   # of expansion vecs  DIISMaxEq       ....     5
   Bias factor          DIISBfac        ....   1.050
   Max. coefficient     DIISMaxC        ....  10.000
 MO-DIIS                CNVKDIIS        .... off
 Trust-Rad. Augm. Hess. CNVTRAH         .... auto
   Auto Start mean grad. ratio tolernc. ....  1.125000
   Auto Start start iteration           ....    50
   Auto Start num. interpolation iter.  ....    10
   Max. Number of Micro iterations      ....    24
   Max. Number of Macro iterations      .... Maxiter - #DIIS iter
   Number of Davidson start vectors     ....     2
   Converg. threshold    (grad. norm)   ....   1.000e-05
   Grad. Scal. Fac. for Micro threshold ....   0.100
   Minimum threshold for Micro iter.    ....   1.000e-02
   NR start threshold (gradient norm)   ....   1.000e-04
   Initial trust radius                 ....   0.400
   Minimum AH scaling param. (alpha)    ....   1.000
   Maximum AH scaling param. (alpha)    .... 1000.000
   Quad. conv. algorithm                .... NR
   White noise on init. David. guess    .... on
   Maximum white noise                  ....   0.010
   Pseudo random numbers                .... off
   Inactive MOs                         .... canonical
   Orbital update algorithm             .... Taylor
   Preconditioner                       .... Diag
   Full preconditioner red. dimension   ....   250
 SOSCF                  CNVSOSCF        .... on
   Start iteration      SOSCFMaxIt      ....   150
   Startup grad/error   SOSCFStart      ....  0.003300
   Hessian update       SOSCFHessUp     .... L-BFGS
 Level Shifting         CNVShift        .... on
   Level shift para.    LevelShift      ....    0.2500
   Turn off err/grad.   ShiftErr        ....    0.0010
 Zerner damping         CNVZerner       .... off
 Static damping         CNVDamp         .... on
   Fraction old density DampFac         ....    0.7000
   Max. Damping (<1)    DampMax         ....    0.9800
   Min. Damping (>=0)   DampMin         ....    0.0000
   Turn off err/grad.   DampErr         ....    0.1000

SCF Procedure:
 Maximum # iterations   MaxIter         ....   125
 SCF integral mode      SCFMode         .... Direct
   Integral package                     .... SHARK and LIBINT hybrid scheme
 Reset frequency        DirectResetFreq ....    20
 Integral Threshold     Thresh          ....  2.500e-11 Eh
 Primitive CutOff       TCut            ....  2.500e-12 Eh

Convergence Tolerance:
 Convergence Check Mode ConvCheckMode   .... Total+1el-Energy
 Convergence forced     ConvForced      .... 0
 Energy Change          TolE            ....  1.000e-08 Eh
 1-El. energy change                    ....  1.000e-05 Eh
 Orbital Gradient       TolG            ....  1.000e-05
 Orbital Rotation angle TolX            ....  1.000e-05
 DIIS Error             TolErr          ....  5.000e-07

------------------------------
INITIAL GUESS: MODEL POTENTIAL
------------------------------
Loading Hartree-Fock densities                     ... done
Calculating cut-offs                               ... done
Initializing the effective Hamiltonian             ... done
Setting up the integral package (SHARK)            ... done
Starting the Coulomb interaction                   ... done (   0.0 sec)
Making the grid                                    ... done (   0.1 sec)
Mapping shells                                     ... done
Starting the XC term evaluation                    ... done (   0.0 sec)
Transforming the Hamiltonian                       ... done (   0.0 sec)
Diagonalizing the Hamiltonian                      ... done (   0.0 sec)
Back transforming the eigenvectors                 ... done (   0.0 sec)
Now organizing SCF variables                       ... done
                      ------------------
                      INITIAL GUESS DONE (   0.1 sec)
                      ------------------
             **** ENERGY FILE WAS UPDATED (frag.en.tmp) ****
Finished Guess after   0.2 sec
Maximum memory used throughout the entire GUESS-calculation: 7.3 MB

-------------------------------------------------------------------------------------------
                                      ORCA LEAN-SCF
                              memory conserving SCF solver
-------------------------------------------------------------------------------------------

----------------------------------------D-I-I-S--------------------------------------------
Iteration    Energy (Eh)           Delta-E    RMSDP     MaxDP     DIISErr   Damp  Time(sec)
-------------------------------------------------------------------------------------------
               ***  Starting incremental Fock matrix formation  ***
    1    -303.5598596979497188     0.00e+00  6.27e-03  7.23e-02  3.30e-01  0.700   0.2
    2    -303.7227983165955152    -1.63e-01  4.27e-03  4.95e-02  2.01e-01  0.700   0.2
                               ***Turning on AO-DIIS***
    3    -303.8108447455791179    -8.80e-02  1.67e-03  2.15e-02  1.13e-01  0.700   0.1
    4    -303.8640314190276399    -5.32e-02  1.01e-03  1.38e-02  7.66e-02  0.700   0.2
    5    -303.8991934573283515    -3.52e-02  2.35e-03  3.29e-02  5.46e-02  0.000   0.2
                              *** Initializing SOSCF ***
---------------------------------------S-O-S-C-F--------------------------------------
Iteration    Energy (Eh)           Delta-E    RMSDP     MaxDP     MaxGrad    Time(sec)
--------------------------------------------------------------------------------------
    6    -303.9776466735703480    -7.85e-02  1.68e-04  1.83e-03  3.20e-03     0.1
               *** Restarting incremental Fock matrix formation ***
    7    -303.9777124039540581    -6.57e-05  1.13e-04  9.47e-04  6.01e-04     0.1
    8    -303.9777244898147615    -1.21e-05  7.73e-05  6.04e-04  3.35e-04     0.1
    9    -303.9777267217623944    -2.23e-06  1.05e-05  1.06e-04  9.90e-05     0.1
   10    -303.9777268343399896    -1.13e-07  1.39e-06  1.51e-05  1.11e-05     0.2
   11    -303.9777268371420860    -2.80e-09  7.31e-07  9.08e-06  3.61e-06     0.1
                 **** Energy Check signals convergence ****

               *****************************************************
               *                     SUCCESS                       *
               *           SCF CONVERGED AFTER  11 CYCLES          *
               *****************************************************

             **** ENERGY FILE WAS UPDATED (frag.en.tmp) ****

----------------
TOTAL SCF ENERGY
----------------

Total Energy       :       -303.97772683714209 Eh           -8271.65447 eV

Components:
Nuclear Repulsion  :        116.18604274395852 Eh            3161.58295 eV
Electronic Energy  :       -420.16376958110061 Eh          -11433.23742 eV
One Electron Energy:       -650.64653654367453 Eh          -17704.99236 eV
Two Electron Energy:        230.48276696257392 Eh            6271.75494 eV

Virial components:
Potential Energy   :       -609.50277544228743 Eh          -16585.41371 eV
Kinetic Energy     :        305.52504860514529 Eh            8313.75924 eV
Virial Ratio       :          1.99493553220900

---------------
SCF CONVERGENCE
---------------

  Last Energy change         ...    2.8021e-09  Tolerance :   1.0000e-08
  Last MAX-Density change    ...    9.0838e-06  Tolerance :   1.0000e-07
  Last RMS-Density change    ...    7.3148e-07  Tolerance :   5.0000e-09
  Last DIIS Error            ...    3.2014e-03  Tolerance :   5.0000e-07
  Last Orbital Gradient      ...    3.6076e-06  Tolerance :   1.0000e-05
  Last Orbital Rotation      ...    4.2040e-06  Tolerance :   1.0000e-05


----------------
ORBITAL ENERGIES
----------------

  NO   OCC          E(Eh)            E(eV) 
   0   2.0000     -20.547524      -559.1265 
   1   2.0000     -20.524761      -558.5071 
   2   2.0000     -20.516501      -558.2824 
   3   2.0000     -20.509427      -558.0899 
   4   2.0000      -1.400783       -38.1172 
   5   2.0000      -1.378639       -37.5147 
   6   2.0000      -1.369955       -37.2784 
   7   2.0000      -1.363204       -37.0947 
   8   2.0000      -0.763676       -20.7807 
   9   2.0000      -0.741195       -20.1689 
  10   2.0000      -0.733323       -19.9547 
  11   2.0000      -0.725476       -19.7412 
  12   2.0000      -0.598723       -16.2921 
  13   2.0000      -0.574855       -15.6426 
  14   2.0000      -0.568297       -15.4642 
  15   2.0000      -0.558387       -15.1945 
  16   2.0000      -0.514389       -13.9972 
  17   2.0000      -0.491870       -13.3845 
  18   2.0000      -0.483800       -13.1649 
  19   2.0000      -0.475717       -12.9449 
  20   0.0000       0.205350         5.5879 
  21   0.0000       0.236633         6.4391 
  22   0.0000       0.252935         6.8827 
  23   0.0000       0.277445         7.5497 
  24   0.0000       0.319200         8.6859 
  25   0.0000       0.335094         9.1184 
  26   0.0000       0.338673         9.2157 
  27   0.0000       0.394056        10.7228 
  28   0.0000       1.045712        28.4553 
  29   0.0000       1.058150        28.7937 
  30   0.0000       1.069416        29.1003 
*Only the first 10 virtual orbitals were printed.

                    ********************************
                    * MULLIKEN POPULATION ANALYSIS *
                    ********************************

-----------------------
MULLIKEN ATOMIC CHARGES
-----------------------
   0 O :   -0.888873
   1 H :    0.443504
   2 H :    0.447601
   3 O :   -0.895561
   4 H :    0.454246
   5 H :    0.440745
   6 O :   -0.878843
   7 H :    0.440887
   8 H :    0.438346
   9 O :   -0.885610
  10 H :    0.433492
  11 H :    0.450066
Sum of atomic charges:   -0.0000000

--------------------------------
MULLIKEN REDUCED ORBITAL CHARGES
--------------------------------
  0 O s       :     3.845701  s :     3.845701
      pz      :     1.848137  p :     5.009883
      px      :     1.800865
      py      :     1.360880
      dz2     :     0.003176  d :     0.033289
      dxz     :     0.006998
      dyz     :     0.008445
      dx2y2   :     0.000851
      dxy     :     0.013819

  1 H s       :     0.556496  s :     0.556496

  2 H s       :     0.552399  s :     0.552399

  3 O s       :     3.846211  s :     3.846211
      pz      :     1.456469  p :     5.016151
      px      :     1.731917
      py      :     1.827765
      dz2     :     0.015075  d :     0.033199
      dxz     :     0.004259
      dyz     :     0.001225
      dx2y2   :     0.002632
      dxy     :     0.010007

  4 H s       :     0.545754  s :     0.545754

  5 H s       :     0.559255  s :     0.559255

  6 O s       :     3.847706  s :     3.847706
      pz      :     1.502554  p :     4.997080
      px      :     1.642156
      py      :     1.852370
      dz2     :     0.006798  d :     0.034057
      dxz     :     0.011036
      dyz     :     0.002603
      dx2y2   :     0.006620
      dxy     :     0.007000

  7 H s       :     0.559113  s :     0.559113

  8 H s       :     0.561654  s :     0.561654

  9 O s       :     3.848361  s :     3.848361
      pz      :     1.711795  p :     5.003484
      px      :     1.710760
      py      :     1.580929
      dz2     :     0.004562  d :     0.033765
      dxz     :     0.009668
      dyz     :     0.002849
      dx2y2   :     0.001793
      dxy     :     0.014894

 10 H s       :     0.566508  s :     0.566508

 11 H s       :     0.549934  s :     0.549934



                     *******************************
                     * LOEWDIN POPULATION ANALYSIS *
                     *******************************

----------------------
LOEWDIN ATOMIC CHARGES
----------------------
   0 O :   -0.626027
   1 H :    0.312538
   2 H :    0.315289
   3 O :   -0.629385
   4 H :    0.317574
   5 H :    0.311413
   6 O :   -0.621376
   7 H :    0.311608
   8 H :    0.310035
   9 O :   -0.623192
  10 H :    0.307450
  11 H :    0.314075

-------------------------------
LOEWDIN REDUCED ORBITAL CHARGES
-------------------------------
  0 O s       :     3.554939  s :     3.554939
      pz      :     1.855111  p :     5.029060
      px      :     1.810400
      py      :     1.363549
      dz2     :     0.003775  d :     0.042028
      dxz     :     0.007425
      dyz     :     0.011164
      dx2y2   :     0.001676
      dxy     :     0.017989

  1 H s       :     0.687462  s :     0.687462

  2 H s       :     0.684711  s :     0.684711

  3 O s       :     3.554603  s :     3.554603
      pz      :     1.459884  p :     5.032968
      px      :     1.741216
      py      :     1.831868
      dz2     :     0.019855  d :     0.041814
      dxz     :     0.005412
      dyz     :     0.001695
      dx2y2   :     0.002736
      dxy     :     0.012117

  4 H s       :     0.682426  s :     0.682426

  5 H s       :     0.688587  s :     0.688587

  6 O s       :     3.557379  s :     3.557379
      pz      :     1.509633  p :     5.020895
      px      :     1.657456
      py      :     1.853805
      dz2     :     0.009219  d :     0.043103
      dxz     :     0.014176
      dyz     :     0.003755
      dx2y2   :     0.007357
      dxy     :     0.008595

  7 H s       :     0.688392  s :     0.688392

  8 H s       :     0.689965  s :     0.689965

  9 O s       :     3.555769  s :     3.555769
      pz      :     1.717385  p :     5.024764
      px      :     1.724631
      py      :     1.582749
      dz2     :     0.005570  d :     0.042659
      dxz     :     0.011781
      dyz     :     0.004453
      dx2y2   :     0.001865
      dxy     :     0.018990

 10 H s       :     0.692550  s :     0.692550

 11 H s       :     0.685925  s :     0.685925



                      *****************************
                      * MAYER POPULATION ANALYSIS *
                      *****************************

  NA   - Mulliken gross atomic population
  ZA   - Total nuclear charge
  QA   - Mulliken gross atomic charge
  VA   - Mayer's total valence
  BVA  - Mayer's bonded valence
  FA   - Mayer's free valence

  ATOM       NA         ZA         QA         VA         BVA        FA
  0 O      8.8889     8.0000    -0.8889     1.5558     1.5558    -0.0000
  1 H      0.5565     1.0000     0.4435     0.7674     0.7674    -0.0000
  2 H      0.5524     1.0000     0.4476     0.7647     0.7647    -0.0000
  3 O      8.8956     8.0000    -0.8956     1.5475     1.5475     0.0000
  4 H      0.5458     1.0000     0.4542     0.7603     0.7603     0.0000
  5 H      0.5593     1.0000     0.4407     0.7700     0.7700    -0.0000
  6 O      8.8788     8.0000    -0.8788     1.5609     1.5609     0.0000
  7 H      0.5591     1.0000     0.4409     0.7691     0.7691     0.0000
  8 H      0.5617     1.0000     0.4383     0.7707     0.7707     0.0000
  9 O      8.8856     8.0000    -0.8856     1.5548     1.5548    -0.0000
 10 H      0.5665     1.0000     0.4335     0.7748     0.7748    -0.0000
 11 H      0.5499     1.0000     0.4501     0.7652     0.7652     0.0000

  Mayer bond orders larger than 0.100000
B(  0-O ,  1-H ) :   0.7763 B(  0-O ,  2-H ) :   0.7740 B(  3-O ,  4-H ) :   0.7669 
B(  3-O ,  5-H ) :   0.7795 B(  6-O ,  7-H ) :   0.7786 B(  6-O ,  8-H ) :   0.7801 
B(  9-O , 10-H ) :   0.7840 B(  9-O , 11-H ) :   0.7676 

-------
TIMINGS
-------

Total SCF time: 0 days 0 hours 0 min 1 sec 

Total time                  ....       1.762 sec
Sum of individual times     ....       1.676 sec  ( 95.1%)

SCF preparation             ....       0.085 sec  (  4.8%)
Fock matrix formation       ....       1.276 sec  ( 72.4%)
  Startup                   ....       0.029 sec  (  2.3% of F)
  Coulomb+Exchange Fock     ....       1.167 sec  ( 91.4% of F)
Diagonalization             ....       0.000 sec  (  0.0%)
Density matrix formation    ....       0.099 sec  (  5.6%)
Total Energy calculation    ....       0.016 sec  (  0.9%)
Population analysis         ....       0.019 sec  (  1.1%)
Orbital Transformation      ....       0.015 sec  (  0.9%)
Orbital Orthonormalization  ....       0.000 sec  (  0.0%)
DIIS solution               ....       0.097 sec  (  5.5%)
SOSCF solution              ....       0.069 sec  (  3.9%)
Finished LeanSCF after   1.8 sec

Maximum memory used throughout the entire LEANSCF-calculation: 8.2 MB

-------------------------   --------------------
FINAL SINGLE POINT ENERGY      -303.977726837142
-------------------------   --------------------

------------------------------------------------------------------------------
                         ORCA SCF GRADIENT CALCULATION
------------------------------------------------------------------------------

Nuc. rep. gradient        (SHARK) ... done (  0.0 sec)
HCore & Overlap gradient  (SHARK) ... done (  0.0 sec)
Two-electron gradient     (SHARK) ... done (  0.4 sec)

------------------
CARTESIAN GRADIENT
------------------

   1   O   :    0.096319066    0.015106482    0.078694282
   2   H   :   -0.048255461    0.085868761   -0.055622353
   3   H   :   -0.048100036   -0.100229832   -0.022522669
   4   O   :   -0.090546363    0.053578337    0.068980195
   5   H   :    0.009574858    0.011467681   -0.113866552
   6   H   :    0.081191882   -0.064203842    0.044094947
   7   O   :   -0.113610563   -0.004994860    0.046061787
   8   H   :    0.087406699    0.046015858    0.054798564
   9   H   :    0.027237978   -0.042525095   -0.100894604
  10   O   :    0.112794036    0.022855206    0.044690403
  11   H   :   -0.047824371    0.063555555   -0.078854149
  12   H   :   -0.066187723   -0.086494250    0.034440149

Difference to translation invariance:
           :   -0.0000000000    0.0000000000   -0.0000000000

Difference to rotation invariance:
           :   -0.0000002054    0.0000002465   -0.0000003704

Norm of the Cartesian gradient     ...    0.4054813264
RMS gradient                       ...    0.0675802211
MAX gradient                       ...    0.1138665521

-------
TIMINGS
-------

Total SCF gradient time     ....        0.450 sec

Densities                   ....       0.000 sec  (  0.0%)
One electron gradient       ....       0.039 sec  (  8.7%)
Two electron gradient       ....       0.410 sec  ( 91.2%)

Maximum memory used throughout the entire SCFGRAD-calculation: 14.0 MB

------------------------------------------------------------------------------
                              ORCA PROPERTY CALCULATIONS
------------------------------------------------------------------------------

GBWName                                 ... frag.gbw
Number of atoms                         ...     12
Number of basis functions               ...     72
Max core memory                         ...   1024 MB

Electric properties:
Dipole moment                           ... YES
Quadrupole moment                       ...  NO
Static polarizability (Dipole/Dipole)   ...  NO
Static polarizability (Dipole/Quad.)    ...  NO
Static polarizability (Quad./Quad.)     ...  NO
Static polarizability (Velocity)        ...  NO

Atomic electric properties:
Dipole moment                           ...  NO
Quadrupole moment                       ...  NO
Static polarizability                   ...  NO

Choice of electric origin               ... Center of mass
Position of electric origin             ...    41.222388    86.973238    75.334893

General magnetic properties:
Magnetizability                         ...  NO

EPR properties:
g-Tensor (aka g-matrix)                 ...  NO
Zero-Field splitting spin-orbit         ...  NO
Zero-field splitting spin-spin          ...  NO
Hyperfine couplings                     ...  NO (   0 nuclei)
Quadrupole couplings                    ...  NO (   0 nuclei)
Contact density                         ...  NO (   0 nuclei)

NMR properties:
Chemical shifts                         ...  NO (   0 nuclei)
Spin-rotation constants                 ...  NO (   0 nuclei)
Spin-spin couplings                     ...  NO (   0 nuclei,    0 pairs)

Choice of magnetic origin               ... GIAO
Position of magnetic origin             ...     0.000000     0.000000     0.000000

Properties with geometric perturbations:
SCF Hessian                             ...  NO
IR spectrum                             ...  NO
VCD spectrum                            ...  NO
X-ray spectroscopy properties:
SCF XES/XAS/RIXS spectra                ...  NO


-------------
DIPOLE MOMENT
-------------

Method             : SCF
Type of density    : Electron Density
Multiplicity       :   1
Irrep              :   0
Energy             :  -303.9777268371420860 Eh
Relativity type    : 
Basis              : AO
                                X                 Y                 Z
Electronic contribution:      0.002203979      -0.020012442      -0.085381827
Nuclear contribution   :      0.048976100       0.625685491       1.702310680
                        -----------------------------------------
Total Dipole Moment    :      0.051180079       0.605673049       1.616928853
                        -----------------------------------------
Magnitude (a.u.)       :      1.727402142
Magnitude (Debye)      :      4.390707309



--------------------
Rotational spectrum 
--------------------
 
Rotational constants in cm-1:             0.070448             0.050306             0.038675 
Rotational constants in MHz :          2111.979698          1508.138192          1159.436101 

Dipole components along the rotational axes: 
x,y,z [a.u.] :     0.674194    -1.036752     1.206037 
x,y,z [Debye]:     1.713666    -2.635215     3.065502 

 

Dipole moment calculation done in   0.0 sec 

Maximum memory used throughout the entire PROP-calculation: 2.7 MB

--------------------------------
SUGGESTED CITATIONS FOR THIS RUN
--------------------------------

Below you find a list of papers that are relevant to this ORCA run
We neither can nor want to force you to cite these papers, but we appreciate if you do
You receive ORCA, which is the product of decades of hard work by many enthusiastic individuals, for free
The only thing we kindly ask in return is that you cite our papers,
We deeply appreciate it, if you show your appreciation for ORCA by not just citing the generic ORCA reference.

Please note that relegating all ORCA citations to the supporting information does *not* help us.
SI sections are not indexed - citations you put there will not count into any citation statistics
But we need these citations in order to attract the funding resources that allow us to do what we are doing

Therefore, if you are a happy ORCA user, please consider citing a few of the papers listed below in the main body of your paper

In addition to the list printed below, the program has created the file frag.bibtex that contains the list in bibtex format
You can import this file easily into all common literature databanks and citation aid programs


List of essential papers. We consider these as the minimum necessary citations

  1. Neese,F.
     Software update: the ORCA program system, version 5.0
     WIRES Comput. Molec. Sci., 2022 12(1)e1606
     doi.org/10.1002/wcms.1606

List of papers to cite with high priority. The work reported in these papers was absolutely
necessary for this run to complete.
Our perspective: the developers of density functionals and basis sets usually get cited in chemistry papers
Good! But without the algorithms to do something with them, the functionals or basis sets would not do anything.
Hence, in our opinion, the algorithm design and method developments papers are equally worthy of getting cited

  1. Neese,F.
     The SHARK Integral Generation and Digestion System
     J. Comp. Chem., 2022  1-16
     doi.org/10.1002/jcc.26942

List of suggested additional citations. These are papers that are important in the 'surrounding' of 
of this run, or papers that preceded the highly important papers. If you like your results we are grateful for a citation.

  1. Neese,F.
     The ORCA program system
     WIRES Comput. Molec. Sci., 2012 2(1)73-78
     doi.org/10.1002/wcms.81
  2. Neese,F.
     Software update: the ORCA program system, version 4.0
     WIRES Comput. Molec. Sci., 2018 8(1)1-6
     doi.org/10.1002/wcms.1327
  3. Neese,F.; Wennmohs,F.; Becker,U.; Riplinger,C.
     The ORCA quantum chemistry program package
     J. Chem. Phys., 2020 152 Art. No. L224108
     doi.org/10.1063/5.0004608

List of optional additional citations

  1. Neese,F.
     Approximate second-order SCF convergence for spin unrestricted wavefunctions
     Chem. Phys. Lett., 2000 325(1-3)93-98
     doi.org/10.1016/s0009-2614(00)00662-x

Timings for individual modules:

Sum of individual times          ...        3.155 sec (=   0.053 min)
Startup calculation              ...        0.514 sec (=   0.009 min)  16.3 %
SCF iterations                   ...        2.038 sec (=   0.034 min)  64.6 %
Property calculations            ...        0.073 sec (=   0.001 min)   2.3 %
SCF Gradient evaluation          ...        0.531 sec (=   0.009 min)  16.8 %
                             ****ORCA TERMINATED NORMALLY****
TOTAL RUN TIME: 0 days 0 hours 0 minutes 3 seconds 404 msec
