
                                 *****************
                                 * O   R   C   A *
                                 *****************

                                            #,                                       
                                            ###                                      
                                            ####                                     
                                            #####                                    
                                            ######                                   
                                           ########,                                 
                                     ,,################,,,,,                         
                               ,,#################################,,                 
                          ,,##########################################,,             
                       ,#########################################, ''#####,          
                    ,#############################################,,   '####,        
                  ,##################################################,,,,####,       
                ,###########''''           ''''###############################       
              ,#####''   ,,,,##########,,,,          '''####'''          '####       
            ,##' ,,,,###########################,,,                        '##       
           ' ,,###''''                  '''############,,,                           
         ,,##''                                '''############,,,,        ,,,,,,###''
      ,#''                                            '''#######################'''  
     '                                                          ''''####''''         
             ,#######,   #######,   ,#######,      ##                                
            ,#'     '#,  ##    ##  ,#'     '#,    #''#        ,####,   ,####,        
            ##       ##  ##   ,#'  ##            #'  '#       #'       #'  '#        
            ##       ##  #######   ##           ,######,      #####,   #    #        
            '#,     ,#'  ##    ##  '#,     ,#' ,#      #,     #,   #   #,  ,#        
             '#######'   ##     ##  '#######'  #'      '#     '####' # '####'        



                #########################################################
                #                        -***-                          #
                #          Department of theory and spectroscopy        #
                #                                                       #
                #                      Frank Neese                      #
                #                                                       #
                #     Directorship, Architecture, Infrastructure        #
                #                    SHARK, DRIVERS                     #
                #        Core code/Algorithms in most modules           #
                #                                                       #
                #        Max Planck Institute fuer Kohlenforschung      #
                #                Kaiser Wilhelm Platz 1                 #
                #                 D-45470 Muelheim/Ruhr                 #
                #                      Germany                          #
                #                                                       #
                #                  All rights reserved                  #
                #                        -***-                          #
                #########################################################


                         Program Version 6.0.1  -  RELEASE   -


 With contributions from (in alphabetic order):
[Max-Planck-Institut fuer Kohlenforschung]                               
  Daniel Aravena         : Magnetic Suceptibility                        
  Michael Atanasov       : Ab Initio Ligand Field Theory (pilot matlab implementation)
  Alexander A. Auer      : GIAO ZORA, VPT2 properties, NMR spectrum      
  Ute Becker             : All parallelization in ORCA, NUMFREQ, NUMCALC 
  Giovanni Bistoni       : ED, misc. LED, open-shell LED, HFLD           
  Martin Brehm           : Molecular dynamics                            
  Dmytro Bykov           : pre 5.0 version of the SCF Hessian            
  Marcos Casanova-Páez   : Triplet and SCS-CIS(D). UHF-(DLPNO)-IP/EA/STEOM-CCSD. UHF-CVS-IP/STEOM-CCSD   
  Vijay G. Chilkuri      : MRCI spin determinant printing, contributions to CSF-ICE 
  Pauline Colinet        : FMM embedding                                 
  Dipayan Datta          : RHF DLPNO-CCSD density                        
  Achintya Kumar Dutta   : EOM-CC, STEOM-CC                              
  Nicolas Foglia         : Exact transition moments, OPA infrastructure, MCD improvements    
  Dmitry Ganyushin       : Spin-Orbit,Spin-Spin,Magnetic field MRCI      
  Miquel Garcia-Rates    : C-PCM and meta-GGA Hessian, CCSD/C-PCM, Gaussian charge scheme 
  Tiago L. C. Gouveia    : GS-ROHF, GS-ROCIS                             
  Yang Guo               : DLPNO-NEVPT2, F12-NEVPT2, CIM, IAO-localization        
  Andreas Hansen         : Spin unrestricted coupled pair/coupled cluster methods 
  Ingolf Harden          : AUTO-CI MPn and infrastructure                
  Benjamin Helmich-Paris : MC-RPA, TRAH-(SCF,CASSCF), AVAS, COSX integrals, SCF dyn. polar. 
  Lee Huntington         : MR-EOM, pCC                                   
  Robert Izsak           : Overlap fitted RIJCOSX, COSX-SCS-MP3, EOM     
  Riya Kayal             : Wick's Theorem for AUTO-CI, AUTO-CI UHF-CCSDT 
  Emily Kempfer          : AUTO-CI, RHF CISDT and CCSDT                  
  Christian Kollmar      : KDIIS, OOCD, Brueckner-CCSD(T), CCSD density, CASPT2, CASPT2-K, improved NEVPT2 
  Axel Koslowski         : Symmetry handling                             
  Simone Kossmann        : meta-GGA functionals, TD-DFT gradient, OOMP2, (MP2 Hessian; deprecated post 5.0) 
  Lucas Lang             : DCDCAS                                        
  Marvin Lechner         : AUTO-CI (C++ implementation), FIC-MRCC        
  Spencer Leger          : CASSCF response                               
  Dagmar Lenk            : GEPOL surface, SMD, ORCA-2-JSON               
  Dimitrios Liakos       : Extrapolation schemes; Compound Job, initial MDCI parallelization 
  Dimitrios Manganas     : Further ROCIS development; embedding schemes. LFT, Crystal Embedding 
  Dimitrios Pantazis     : SARC Basis sets                               
  Anastasios Papadopoulos: AUTO-CI, single reference methods and gradients 
  Taras Petrenko         : pre 6.0 DFT Hessian and TD-DFT gradient, (ASA, deprecated), ECA, 1-Electron XAS/XES, NRVS 
  Peter Pinski           : DLPNO-MP2, DLPNO-MP2 Gradient                 
  Christoph Reimann      : Effective Core Potentials                     
  Marius Retegan         : Local ZFS, SOC                                
  Christoph Riplinger    : Optimizer, TS searches, QM/MM, DLPNO-CCSD(T), (RO)-DLPNO pert. Triples 
  Michael Roemelt        : Original ROCIS implementation                 
  Masaaki Saitow         : Open-shell DLPNO-CCSD energy and density      
  Barbara Sandhoefer     : DKH picture change effects                    
  Kantharuban Sivalingam : CASSCF convergence/infrastructure, NEVPT2 and variants, FIC-MRCI 
  Bernardo de Souza      : ESD, SOC TD-DFT                               
  Georgi L. Stoychev     : AutoAux, RI-MP2 NMR, DLPNO-MP2 response, X2C  
  Van Anh Tran           : RI-MP2 g-tensors                              
  Willem Van den Heuvel  : Paramagnetic NMR                              
  Zikuan Wang            : NOTCH, Electric field optimization            
  Frank Wennmohs         : Technical directorship and infrastructure     
  Hang Xu                : AUTO-CI-Response properties                   
                                                                         
[FACCTs GmbH]                                                            
  Markus Bursch, Miquel Garcia-Rates, Christoph Riplinger, Bernardo de Souza, Georgi L. Stoychev 
                                                                 
  APM, Basis sets (HGBS, AHGBS, def-TZVP (Ac-Lr), def2-XVPD (La-Lu)), CI-OPT, improved COSX, DLPNO-Multilevel,           
  DOCKER, DRACO, updates on ESD, GOAT, IRC, LR-CPCM, MBIS, meta-GGA TD-DFT gradient, ML-optimized integration grids, 
  MM, NACMEs, nearIR, NEB, NEB-TS, NL-DFT gradient (VV10), 2- and 3-layer-ONIOM, interface openCOSMO-RS, QMMM,   
  Crystal-QMMM, SF, symmetry and pop. for TD-DFT, r2SCAN hybrids, SOLVATOR                                   
                                                                         
[Other institutions]                                                     
  V. Asgeirsson          : NEB                                           
  Christoph Bannwarth    : sTDA-DFT, sTD-DFT, PBEh-3c, B97-3c, D3        
  Sebastian Ehlert       : rSCAN, r2SCAN, r2SCAN-3c, D4, dhf basis sets  
  Marvin Friede          : D4 for Fr, Ra, Ac-Lr                          
  Lars Goerigk           : TD-DFT with DH, B97 family of functionals     
  Stefan Grimme          : VdW corrections, initial TS optimization, DFT functionals, gCP, sTDA/sTD-DF 
  Waldemar Hujo          : DFT-NL                                        
  H. Jonsson             : NEB                                           
  Holger Kruse           : gCP                                           
  Marcel Mueller         : wB97X-3c, vDZP basis set                      
  Hagen Neugebauer       : wr2SCAN                                       
  Tobias Risthaus        : range-separated hybrid DFT                    
  Lukas Wittmann         : regularized MP2, r2SCAN double-hybrids, wr2SCAN        
                                                                         
We gratefully acknowledge several colleagues who have allowed us to      
interface, adapt or use parts of their codes:                            
  Ed Valeev, F. Pavosevic, A. Kumar             : LibInt (2-el integral package), F12 methods 
  Garnet Chan, S. Sharma, J. Yang, R. Olivares  : DMRG                   
  Ulf Ekstrom                                   : XCFun DFT Library      
  Mihaly Kallay                                 : mrcc  (arbitrary order and MRCC methods)
  Frank Weinhold                                : gennbo (NPA and NBO analysis)           
  Simon Mueller                                 : openCOSMO-RS                            
  Christopher J. Cramer and Donald G. Truhlar   : smd solvation model                     
  S Lehtola, MJT Oliveira, MAL Marques          : LibXC Library                           
  Liviu Ungur et al                             : ANISO software                          


 Your calculation uses the libint2 library for the computation of 2-el integrals
 For citations please refer to: http://libint.valeyev.net

 Your ORCA version has been built with support for libXC version: 6.2.2
 For citations please refer to: https://libxc.gitlab.io

 This ORCA versions uses:
   CBLAS   interface :  Fast vector & matrix operations
   LAPACKE interface :  Fast linear algebra routines
   SCALAPACK package :  Parallel linear algebra routines
   Shared memory     :  Shared parallel matrices
   BLAS/LAPACK       :  OpenBLAS 0.3.27  USE64BITINT DYNAMIC_ARCH NO_AFFINITY SkylakeX SINGLE_THREADED
        Core in use  :  SkylakeX
   Copyright (c) 2011-2014, The OpenBLAS Project


================================================================================

----- Orbital basis set information -----
Your calculation utilizes the basis: 6-31G*
   H-He, Li-Ne : W. J. Hehre, R. Ditchfield and J.A. Pople, J. Chem. Phys. 56, 2257 (1972).
                 Note: He and Ne are unpublished basis sets taken from the Gaussian program.
                 Note: Li and B from J. D. Dill and J. A. Pople, J. Chem. Phys. 62, 2921 (1975).
   Na - Ar     : M. M. Francl, W. J. Pietro, W. J. Hehre, J. S. Binkley, M. S. Gordon, 
                 D. J. DeFrees and J. A. Pople, J. Chem. Phys. 77, 3654 (1982).
   K - Zn      : V. A. Rassolov, J. A. Pople, M. A. Ratner, and T. L. Windus, J. Chem. Phys. 109, 1223 (1998).

================================================================================
                                        WARNINGS
                       Please study these warnings very carefully!
================================================================================


================================================================================
                                       INPUT FILE
================================================================================
NAME = frag.inp
|  1> !HF 6-31G* EnGrad
|  2> %pal nprocs 1 end
|  3> *xyz 0 1
|  4> O 21.31548000 47.19077000 40.87238000
|  5> H 22.11097000 46.98487000 41.16553000
|  6> H 20.96265000 46.41737000 40.67613000
|  7> O 24.10596000 46.93173000 41.50917000
|  8> H 24.52341000 46.31399000 41.96223000
|  9> H 24.52212000 47.66562000 41.73132000
| 10> O 20.35232000 49.63574000 40.01023000
| 11> H 20.79050000 48.92392000 40.26012000
| 12> H 19.54326000 49.49202000 40.30334000
| 13> O 21.99613000 48.36911000 43.54199000
| 14> H 21.97702000 49.24128000 43.53308000
| 15> H 21.46413000 48.14557000 42.88766000
| 16> *
| 17> 
| 18>                          ****END OF INPUT****
================================================================================

                     *******************************
                     * Energy+Gradient Calculation *
                     *******************************

---------------------------------
CARTESIAN COORDINATES (ANGSTROEM)
---------------------------------
  O     21.315480   47.190770   40.872380
  H     22.110970   46.984870   41.165530
  H     20.962650   46.417370   40.676130
  O     24.105960   46.931730   41.509170
  H     24.523410   46.313990   41.962230
  H     24.522120   47.665620   41.731320
  O     20.352320   49.635740   40.010230
  H     20.790500   48.923920   40.260120
  H     19.543260   49.492020   40.303340
  O     21.996130   48.369110   43.541990
  H     21.977020   49.241280   43.533080
  H     21.464130   48.145570   42.887660

----------------------------
CARTESIAN COORDINATES (A.U.)
----------------------------
  NO LB      ZA    FRAG     MASS         X           Y           Z
   0 O     8.0000    0    15.999   40.280420   89.177631   77.237605
   1 H     1.0000    0     1.008   41.783678   88.788537   77.791578
   2 H     1.0000    0     1.008   39.613668   87.716117   76.866746
   3 O     8.0000    0    15.999   45.553663   88.688117   78.440963
   4 H     1.0000    0     1.008   46.342529   87.520757   79.297123
   5 H     1.0000    0     1.008   46.340091   90.074968   78.860766
   6 O     8.0000    0    15.999   38.460311   93.797955   75.608377
   7 H     1.0000    0     1.008   39.288351   92.452810   76.080601
   8 H     1.0000    0     1.008   36.931409   93.526364   76.162275
   9 O     8.0000    0    15.999   41.566662   91.404371   82.282436
  10 H     1.0000    0     1.008   41.530549   93.052534   82.265599
  11 H     1.0000    0     1.008   40.561327   90.981942   81.045932

--------------------------------
INTERNAL COORDINATES (ANGSTROEM)
--------------------------------
 O      0   0   0     0.000000000000     0.00000000     0.00000000
 H      1   0   0     0.872431127712     0.00000000     0.00000000
 H      1   2   0     0.872439471482   103.59872274     0.00000000
 O      2   1   3     2.025067260439   164.04508453   134.49752923
 H      4   2   1     0.872427976225   125.31625843   188.06283548
 H      4   2   1     0.872430111929   119.41048032    51.16069882
 O      1   2   3     2.765656903703   129.11896367   197.01747687
 H      7   1   2     0.872430190273     9.76862677    18.30230780
 H      7   1   2     0.872437386922    94.16296827   213.12954087
 O      2   1   3     2.752611620770    97.66454154   232.09709776
 H     10   2   1     0.872424832923   119.65867956   292.19524676
 H     10   2   1     0.872434456277    41.32939881     8.44035756

---------------------------
INTERNAL COORDINATES (A.U.)
---------------------------
 O      0   0   0     0.000000000000     0.00000000     0.00000000
 H      1   0   0     1.648655902083     0.00000000     0.00000000
 H      1   2   0     1.648671669524   103.59872274     0.00000000
 O      2   1   3     3.826822524999   164.04508453   134.49752923
 H      4   2   1     1.648649946636   125.31625843   188.06283548
 H      4   2   1     1.648653982532   119.41048032    51.16069882
 O      1   2   3     5.226334128387   129.11896367   197.01747687
 H      7   1   2     1.648654130581     9.76862677    18.30230780
 H      7   1   2     1.648667730277    94.16296827   213.12954087
 O      2   1   3     5.201682116305    97.66454154   232.09709776
 H     10   2   1     1.648644006656   119.65867956   292.19524676
 H     10   2   1     1.648662192161    41.32939881     8.44035756

---------------------
BASIS SET INFORMATION
---------------------
There are 2 groups of distinct atoms

 Group   1 Type O   : 10s4p1d contracted to 3s2p1d pattern {631/31/1}
 Group   2 Type H   : 4s contracted to 2s pattern {31}

Atom   0O    basis set group =>   1
Atom   1H    basis set group =>   2
Atom   2H    basis set group =>   2
Atom   3O    basis set group =>   1
Atom   4H    basis set group =>   2
Atom   5H    basis set group =>   2
Atom   6O    basis set group =>   1
Atom   7H    basis set group =>   2
Atom   8H    basis set group =>   2
Atom   9O    basis set group =>   1
Atom  10H    basis set group =>   2
Atom  11H    basis set group =>   2
------------------------------------------------------------------------------
                             ORCA STARTUP CALCULATIONS
------------------------------------------------------------------------------
------------------------------------------------------------------------------
                   ___                                                        
                  /   \      - P O W E R E D   B Y -                         
                 /     \                                                     
                 |  |  |   _    _      __       _____    __    __             
                 |  |  |  | |  | |    /  \     |  _  \  |  |  /  |          
                  \  \/   | |  | |   /    \    | | | |  |  | /  /          
                 / \  \   | |__| |  /  /\  \   | |_| |  |  |/  /          
                |  |  |   |  __  | /  /__\  \  |    /   |      \           
                |  |  |   | |  | | |   __   |  |    \   |  |\   \          
                \     /   | |  | | |  |  |  |  | |\  \  |  | \   \       
                 \___/    |_|  |_| |__|  |__|  |_| \__\ |__|  \__/        
                                                                              
                      - O R C A' S   B I G   F R I E N D -                    
                                      &                                       
                       - I N T E G R A L  F E E D E R -                       
                                                                              
 v1 FN, 2020, v2 2021, v3 2022-2024                                           
------------------------------------------------------------------------------


----------------------
SHARK INTEGRAL PACKAGE
----------------------

Number of atoms                             ...     12
Number of basis functions                   ...     72
Number of shells                            ...     40
Maximum angular momentum                    ...      2
Integral batch strategy                     ... SHARK/LIBINT Hybrid
RI-J (if used) integral strategy            ... SPLIT-RIJ (Revised 2003 algorithm where possible)
Printlevel                                  ...      1
Contraction scheme used                     ... SEGMENTED contraction
Prescreening option                         ... SCHWARTZ
   Thresh                                   ... 2.500e-11
   Tcut                                     ... 2.500e-12
   Tpresel                                  ... 2.500e-12 
Coulomb Range Separation                    ... NOT USED
Exchange Range Separation                   ... NOT USED
Multipole approximations                    ... NOT USED
Finite Nucleus Model                        ... NOT USED
CABS basis                                  ... NOT available
Auxiliary Coulomb fitting basis             ... NOT available
Auxiliary J/K fitting basis                 ... NOT available
Auxiliary Correlation fitting basis         ... NOT available
Auxiliary 'external' fitting basis          ... NOT available

Checking pre-screening integrals            ... done (  0.0 sec) Dimension = 40
Check shell pair data                       ... done (  0.0 sec)
Shell pair information
Shell pair cut-off parameter TPreSel        ...   2.5e-12
Total number of shell pairs                 ...       820
Shell pairs after pre-screening             ...       758
Total number of primitive shell pairs       ...      4386
Primitive shell pairs kept                  ...      2709
          la=0 lb=0:    373 shell pairs
          la=1 lb=0:    209 shell pairs
          la=1 lb=1:     34 shell pairs
          la=2 lb=0:    103 shell pairs
          la=2 lb=1:     30 shell pairs
          la=2 lb=2:      9 shell pairs

Calculating one electron integrals          ... done (  0.0 sec)
Calculating Nuclear repulsion               ... done (  0.0 sec) ENN=    135.796440907465 Eh

Diagonalization of the overlap matrix:
Smallest eigenvalue                        ... 2.953e-02
Time for diagonalization                   ...    0.001 sec
Threshold for overlap eigenvalues          ... 1.000e-07
Number of eigenvalues below threshold      ... 0
Time for construction of square roots      ...    0.006 sec
Total time needed                          ...    0.011 sec

-------------------
DFT GRID GENERATION
-------------------

General Integration Accuracy     IntAcc      ... 4.388
Radial Grid Type                 RadialGrid  ... OptM3 with GC (2021)
Angular Grid (max. ang.)         AngularGrid ... 4 (Lebedev-302)
Angular grid pruning method      GridPruning ... 4 (adaptive)
Weight generation scheme         WeightScheme... mBecke (2022)
Basis function cutoff            BFCut       ... 1.0000e-11
Integration weight cutoff        WCut        ... 1.0000e-14
Partially contracted basis set               ... off
Rotationally invariant grid construction     ... off
Angular grids for H and He will be reduced by one unit

Total number of grid points                  ...    50632
Total number of batches                      ...      797
Average number of points per batch           ...       63
Average number of grid points per atom       ...     4219
Initializing property integral containers    ... done (  0.0 sec)

SHARK setup successfully completed in   0.4 seconds

Maximum memory used throughout the entire STARTUP-calculation: 17.5 MB
-------------------------------------------------------------------------------
                                 ORCA GUESS
                   Start orbitals & Density for SCF / CASSCF
-------------------------------------------------------------------------------

------------
SCF SETTINGS
------------
Hamiltonian:
 Ab initio Hamiltonian  Method          .... Hartree-Fock(GTOs)


General Settings:
 Integral files         IntName         .... frag
 Hartree-Fock type      HFTyp           .... RHF
 Total Charge           Charge          ....    0
 Multiplicity           Mult            ....    1
 Number of Electrons    NEL             ....   40
 Basis Dimension        Dim             ....   72
 Nuclear Repulsion      ENuc            ....    135.7964409075 Eh

Convergence Acceleration:
 AO-DIIS                CNVDIIS         .... on
   Start iteration      DIISMaxIt       ....    12
   Startup error        DIISStart       ....  0.200000
   # of expansion vecs  DIISMaxEq       ....     5
   Bias factor          DIISBfac        ....   1.050
   Max. coefficient     DIISMaxC        ....  10.000
 MO-DIIS                CNVKDIIS        .... off
 Trust-Rad. Augm. Hess. CNVTRAH         .... auto
   Auto Start mean grad. ratio tolernc. ....  1.125000
   Auto Start start iteration           ....    50
   Auto Start num. interpolation iter.  ....    10
   Max. Number of Micro iterations      ....    24
   Max. Number of Macro iterations      .... Maxiter - #DIIS iter
   Number of Davidson start vectors     ....     2
   Converg. threshold    (grad. norm)   ....   1.000e-05
   Grad. Scal. Fac. for Micro threshold ....   0.100
   Minimum threshold for Micro iter.    ....   1.000e-02
   NR start threshold (gradient norm)   ....   1.000e-04
   Initial trust radius                 ....   0.400
   Minimum AH scaling param. (alpha)    ....   1.000
   Maximum AH scaling param. (alpha)    .... 1000.000
   Quad. conv. algorithm                .... NR
   White noise on init. David. guess    .... on
   Maximum white noise                  ....   0.010
   Pseudo random numbers                .... off
   Inactive MOs                         .... canonical
   Orbital update algorithm             .... Taylor
   Preconditioner                       .... Diag
   Full preconditioner red. dimension   ....   250
 SOSCF                  CNVSOSCF        .... on
   Start iteration      SOSCFMaxIt      ....   150
   Startup grad/error   SOSCFStart      ....  0.003300
   Hessian update       SOSCFHessUp     .... L-BFGS
 Level Shifting         CNVShift        .... on
   Level shift para.    LevelShift      ....    0.2500
   Turn off err/grad.   ShiftErr        ....    0.0010
 Zerner damping         CNVZerner       .... off
 Static damping         CNVDamp         .... on
   Fraction old density DampFac         ....    0.7000
   Max. Damping (<1)    DampMax         ....    0.9800
   Min. Damping (>=0)   DampMin         ....    0.0000
   Turn off err/grad.   DampErr         ....    0.1000

SCF Procedure:
 Maximum # iterations   MaxIter         ....   125
 SCF integral mode      SCFMode         .... Direct
   Integral package                     .... SHARK and LIBINT hybrid scheme
 Reset frequency        DirectResetFreq ....    20
 Integral Threshold     Thresh          ....  2.500e-11 Eh
 Primitive CutOff       TCut            ....  2.500e-12 Eh

Convergence Tolerance:
 Convergence Check Mode ConvCheckMode   .... Total+1el-Energy
 Convergence forced     ConvForced      .... 0
 Energy Change          TolE            ....  1.000e-08 Eh
 1-El. energy change                    ....  1.000e-05 Eh
 Orbital Gradient       TolG            ....  1.000e-05
 Orbital Rotation angle TolX            ....  1.000e-05
 DIIS Error             TolErr          ....  5.000e-07

------------------------------
INITIAL GUESS: MODEL POTENTIAL
------------------------------
Loading Hartree-Fock densities                     ... done
Calculating cut-offs                               ... done
Initializing the effective Hamiltonian             ... done
Setting up the integral package (SHARK)            ... done
Starting the Coulomb interaction                   ... done (   0.0 sec)
Making the grid                                    ... done (   0.1 sec)
Mapping shells                                     ... done
Starting the XC term evaluation                    ... done (   0.0 sec)
Transforming the Hamiltonian                       ... done (   0.0 sec)
Diagonalizing the Hamiltonian                      ... done (   0.0 sec)
Back transforming the eigenvectors                 ... done (   0.0 sec)
Now organizing SCF variables                       ... done
                      ------------------
                      INITIAL GUESS DONE (   0.2 sec)
                      ------------------
             **** ENERGY FILE WAS UPDATED (frag.en.tmp) ****
Finished Guess after   0.3 sec
Maximum memory used throughout the entire GUESS-calculation: 7.5 MB

-------------------------------------------------------------------------------------------
                                      ORCA LEAN-SCF
                              memory conserving SCF solver
-------------------------------------------------------------------------------------------

----------------------------------------D-I-I-S--------------------------------------------
Iteration    Energy (Eh)           Delta-E    RMSDP     MaxDP     DIISErr   Damp  Time(sec)
-------------------------------------------------------------------------------------------
               ***  Starting incremental Fock matrix formation  ***
    1    -303.6172098091076350     0.00e+00  6.07e-03  7.40e-02  3.33e-01  0.700   0.2
    2    -303.7660691855519417    -1.49e-01  4.13e-03  5.10e-02  2.04e-01  0.700   0.2
                               ***Turning on AO-DIIS***
    3    -303.8468745670028284    -8.08e-02  1.67e-03  2.22e-02  1.15e-01  0.700   0.2
    4    -303.8958291994204046    -4.90e-02  1.04e-03  1.43e-02  7.80e-02  0.700   0.2
    5    -303.9282115210358484    -3.24e-02  2.44e-03  3.39e-02  5.54e-02  0.000   0.2
                              *** Initializing SOSCF ***
---------------------------------------S-O-S-C-F--------------------------------------
Iteration    Energy (Eh)           Delta-E    RMSDP     MaxDP     MaxGrad    Time(sec)
--------------------------------------------------------------------------------------
    6    -304.0004736455681495    -7.23e-02  1.94e-04  2.18e-03  3.28e-03     0.2
               *** Restarting incremental Fock matrix formation ***
    7    -304.0005347316725306    -6.11e-05  1.15e-04  1.11e-03  6.53e-04     0.3
    8    -304.0005465688536788    -1.18e-05  7.96e-05  7.41e-04  2.42e-04     0.2
    9    -304.0005486540813990    -2.09e-06  1.17e-05  1.11e-04  7.33e-05     0.2
   10    -304.0005487773922255    -1.23e-07  1.49e-06  1.74e-05  1.04e-05     0.2
   11    -304.0005487796304919    -2.24e-09  6.29e-07  7.92e-06  2.64e-06     0.1
                 **** Energy Check signals convergence ****

               *****************************************************
               *                     SUCCESS                       *
               *           SCF CONVERGED AFTER  11 CYCLES          *
               *****************************************************

             **** ENERGY FILE WAS UPDATED (frag.en.tmp) ****

----------------
TOTAL SCF ENERGY
----------------

Total Energy       :       -304.00054877963049 Eh           -8272.27549 eV

Components:
Nuclear Repulsion  :        135.79644090746473 Eh            3695.20902 eV
Electronic Energy  :       -439.79698968709522 Eh          -11967.48450 eV
One Electron Energy:       -689.35092928697668 Eh          -18758.19243 eV
Two Electron Energy:        249.55393959988146 Eh            6790.70793 eV

Virial components:
Potential Energy   :       -609.55525519368859 Eh          -16586.84175 eV
Kinetic Energy     :        305.55470641405810 Eh            8314.56627 eV
Virial Ratio       :          1.99491365178869

---------------
SCF CONVERGENCE
---------------

  Last Energy change         ...    2.2383e-09  Tolerance :   1.0000e-08
  Last MAX-Density change    ...    7.9197e-06  Tolerance :   1.0000e-07
  Last RMS-Density change    ...    6.2873e-07  Tolerance :   5.0000e-09
  Last DIIS Error            ...    3.2768e-03  Tolerance :   5.0000e-07
  Last Orbital Gradient      ...    2.6386e-06  Tolerance :   1.0000e-05
  Last Orbital Rotation      ...    3.1565e-06  Tolerance :   1.0000e-05


----------------
ORBITAL ENERGIES
----------------

  NO   OCC          E(Eh)            E(eV) 
   0   2.0000     -20.562819      -559.5428 
   1   2.0000     -20.553805      -559.2975 
   2   2.0000     -20.527019      -558.5686 
   3   2.0000     -20.501555      -557.8757 
   4   2.0000      -1.417388       -38.5691 
   5   2.0000      -1.407873       -38.3102 
   6   2.0000      -1.380817       -37.5739 
   7   2.0000      -1.357416       -36.9372 
   8   2.0000      -0.778996       -21.1976 
   9   2.0000      -0.774964       -21.0878 
  10   2.0000      -0.742766       -20.2117 
  11   2.0000      -0.727703       -19.8018 
  12   2.0000      -0.630171       -17.1478 
  13   2.0000      -0.607682       -16.5359 
  14   2.0000      -0.580757       -15.8032 
  15   2.0000      -0.549146       -14.9430 
  16   2.0000      -0.531990       -14.4762 
  17   2.0000      -0.522663       -14.2224 
  18   2.0000      -0.493454       -13.4276 
  19   2.0000      -0.472542       -12.8585 
  20   0.0000       0.200253         5.4492 
  21   0.0000       0.239944         6.5292 
  22   0.0000       0.268733         7.3126 
  23   0.0000       0.292904         7.9703 
  24   0.0000       0.316893         8.6231 
  25   0.0000       0.383376        10.4322 
  26   0.0000       0.433995        11.8096 
  27   0.0000       0.473686        12.8896 
  28   0.0000       0.995150        27.0794 
  29   0.0000       1.043926        28.4067 
  30   0.0000       1.056897        28.7596 
*Only the first 10 virtual orbitals were printed.

                    ********************************
                    * MULLIKEN POPULATION ANALYSIS *
                    ********************************

-----------------------
MULLIKEN ATOMIC CHARGES
-----------------------
   0 O :   -0.951472
   1 H :    0.514221
   2 H :    0.449736
   3 O :   -0.894802
   4 H :    0.453962
   5 H :    0.459182
   6 O :   -0.947893
   7 H :    0.503135
   8 H :    0.428167
   9 O :   -0.921584
  10 H :    0.442005
  11 H :    0.465341
Sum of atomic charges:   -0.0000000

--------------------------------
MULLIKEN REDUCED ORBITAL CHARGES
--------------------------------
  0 O s       :     3.854185  s :     3.854185
      pz      :     1.909883  p :     5.066551
      px      :     1.545310
      py      :     1.611358
      dz2     :     0.004299  d :     0.030736
      dxz     :     0.002909
      dyz     :     0.003481
      dx2y2   :     0.011642
      dxy     :     0.008405

  1 H s       :     0.485779  s :     0.485779

  2 H s       :     0.550264  s :     0.550264

  3 O s       :     3.840848  s :     3.840848
      pz      :     1.852734  p :     5.022363
      px      :     1.791016
      py      :     1.378613
      dz2     :     0.002931  d :     0.031591
      dxz     :     0.006490
      dyz     :     0.008311
      dx2y2   :     0.000726
      dxy     :     0.013134

  4 H s       :     0.546038  s :     0.546038

  5 H s       :     0.540818  s :     0.540818

  6 O s       :     3.852997  s :     3.852997
      pz      :     1.916746  p :     5.062150
      px      :     1.419743
      py      :     1.725661
      dz2     :     0.003474  d :     0.032746
      dxz     :     0.006314
      dyz     :     0.005481
      dx2y2   :     0.009583
      dxy     :     0.007894

  7 H s       :     0.496865  s :     0.496865

  8 H s       :     0.571833  s :     0.571833

  9 O s       :     3.851905  s :     3.851905
      pz      :     1.750756  p :     5.036715
      px      :     1.822157
      py      :     1.463803
      dz2     :     0.007125  d :     0.032963
      dxz     :     0.010273
      dyz     :     0.001725
      dx2y2   :     0.012235
      dxy     :     0.001605

 10 H s       :     0.557995  s :     0.557995

 11 H s       :     0.534659  s :     0.534659



                     *******************************
                     * LOEWDIN POPULATION ANALYSIS *
                     *******************************

----------------------
LOEWDIN ATOMIC CHARGES
----------------------
   0 O :   -0.612738
   1 H :    0.314908
   2 H :    0.319697
   3 O :   -0.608443
   4 H :    0.318911
   5 H :    0.322088
   6 O :   -0.647202
   7 H :    0.301603
   8 H :    0.307345
   9 O :   -0.637001
  10 H :    0.313301
  11 H :    0.307531

-------------------------------
LOEWDIN REDUCED ORBITAL CHARGES
-------------------------------
  0 O s       :     3.536646  s :     3.536646
      pz      :     1.902751  p :     5.038021
      px      :     1.524798
      py      :     1.610472
      dz2     :     0.004879  d :     0.038070
      dxz     :     0.003505
      dyz     :     0.004187
      dx2y2   :     0.014750
      dxy     :     0.010750

  1 H s       :     0.685092  s :     0.685092

  2 H s       :     0.680303  s :     0.680303

  3 O s       :     3.545905  s :     3.545905
      pz      :     1.858423  p :     5.022547
      px      :     1.789564
      py      :     1.374560
      dz2     :     0.003484  d :     0.039991
      dxz     :     0.006911
      dyz     :     0.010855
      dx2y2   :     0.001663
      dxy     :     0.017078

  4 H s       :     0.681089  s :     0.681089

  5 H s       :     0.677912  s :     0.677912

  6 O s       :     3.544451  s :     3.544451
      pz      :     1.919287  p :     5.062302
      px      :     1.424145
      py      :     1.718870
      dz2     :     0.004003  d :     0.040449
      dxz     :     0.007956
      dyz     :     0.005663
      dx2y2   :     0.012704
      dxy     :     0.010122

  7 H s       :     0.698397  s :     0.698397

  8 H s       :     0.692655  s :     0.692655

  9 O s       :     3.551175  s :     3.551175
      pz      :     1.747910  p :     5.044755
      px      :     1.826522
      py      :     1.470323
      dz2     :     0.008862  d :     0.041070
      dxz     :     0.012128
      dyz     :     0.002235
      dx2y2   :     0.015900
      dxy     :     0.001946

 10 H s       :     0.686699  s :     0.686699

 11 H s       :     0.692469  s :     0.692469



                      *****************************
                      * MAYER POPULATION ANALYSIS *
                      *****************************

  NA   - Mulliken gross atomic population
  ZA   - Total nuclear charge
  QA   - Mulliken gross atomic charge
  VA   - Mayer's total valence
  BVA  - Mayer's bonded valence
  FA   - Mayer's free valence

  ATOM       NA         ZA         QA         VA         BVA        FA
  0 O      8.9515     8.0000    -0.9515     1.5351     1.5351    -0.0000
  1 H      0.4858     1.0000     0.5142     0.7217     0.7217    -0.0000
  2 H      0.5503     1.0000     0.4497     0.7683     0.7683     0.0000
  3 O      8.8948     8.0000    -0.8948     1.5770     1.5770    -0.0000
  4 H      0.5460     1.0000     0.4540     0.7601     0.7601    -0.0000
  5 H      0.5408     1.0000     0.4592     0.7584     0.7584     0.0000
  6 O      8.9479     8.0000    -0.9479     1.4962     1.4962     0.0000
  7 H      0.4969     1.0000     0.5031     0.7324     0.7324    -0.0000
  8 H      0.5718     1.0000     0.4282     0.7824     0.7824     0.0000
  9 O      8.9216     8.0000    -0.9216     1.5246     1.5246    -0.0000
 10 H      0.5580     1.0000     0.4420     0.7711     0.7711    -0.0000
 11 H      0.5347     1.0000     0.4653     0.7663     0.7663     0.0000

  Mayer bond orders larger than 0.100000
B(  0-O ,  1-H ) :   0.6795 B(  0-O ,  2-H ) :   0.7734 B(  3-O ,  4-H ) :   0.7680 
B(  3-O ,  5-H ) :   0.7628 B(  6-O ,  7-H ) :   0.6999 B(  6-O ,  8-H ) :   0.7907 
B(  9-O , 10-H ) :   0.7799 B(  9-O , 11-H ) :   0.7341 

-------
TIMINGS
-------

Total SCF time: 0 days 0 hours 0 min 2 sec 

Total time                  ....       2.224 sec
Sum of individual times     ....       2.154 sec  ( 96.8%)

SCF preparation             ....       0.054 sec  (  2.4%)
Fock matrix formation       ....       1.836 sec  ( 82.6%)
  Startup                   ....       0.030 sec  (  1.6% of F)
  Coulomb+Exchange Fock     ....       1.737 sec  ( 94.6% of F)
Diagonalization             ....       0.000 sec  (  0.0%)
Density matrix formation    ....       0.075 sec  (  3.4%)
Total Energy calculation    ....       0.024 sec  (  1.1%)
Population analysis         ....       0.011 sec  (  0.5%)
Orbital Transformation      ....       0.018 sec  (  0.8%)
Orbital Orthonormalization  ....       0.000 sec  (  0.0%)
DIIS solution               ....       0.082 sec  (  3.7%)
SOSCF solution              ....       0.053 sec  (  2.4%)
Finished LeanSCF after   2.3 sec

Maximum memory used throughout the entire LEANSCF-calculation: 8.4 MB

-------------------------   --------------------
FINAL SINGLE POINT ENERGY      -304.000548779630
-------------------------   --------------------

------------------------------------------------------------------------------
                         ORCA SCF GRADIENT CALCULATION
------------------------------------------------------------------------------

Nuc. rep. gradient        (SHARK) ... done (  0.0 sec)
HCore & Overlap gradient  (SHARK) ... done (  0.0 sec)
Two-electron gradient     (SHARK) ... done (  0.7 sec)

------------------
CARTESIAN GRADIENT
------------------

   1   O   :    0.058766422   -0.108942580    0.007524037
   2   H   :   -0.116352715    0.016365355   -0.038924938
   3   H   :    0.054888683    0.095839851    0.029552943
   4   O   :    0.094528486    0.017446588    0.081397377
   5   H   :   -0.048046781    0.086636661   -0.056478965
   6   H   :   -0.045742209   -0.101959745   -0.024710369
   7   O   :   -0.040032079   -0.107805463    0.062839637
   8   H   :   -0.064270005    0.092083060   -0.026756932
   9   H   :    0.105960634    0.011490604   -0.033868393
  10   O   :   -0.065289257    0.073496632   -0.079851093
  11   H   :   -0.002598454   -0.113232961   -0.005601076
  12   H   :    0.068187274    0.038581998    0.084877771

Difference to translation invariance:
           :   -0.0000000000   -0.0000000000    0.0000000000

Difference to rotation invariance:
           :   -0.0000003709    0.0000004117    0.0000003424

Norm of the Cartesian gradient     ...    0.4135073251
RMS gradient                       ...    0.0689178875
MAX gradient                       ...    0.1163527151

-------
TIMINGS
-------

Total SCF gradient time     ....        0.694 sec

Densities                   ....       0.000 sec  (  0.0%)
One electron gradient       ....       0.041 sec  (  5.9%)
Two electron gradient       ....       0.653 sec  ( 94.1%)

Maximum memory used throughout the entire SCFGRAD-calculation: 14.2 MB

------------------------------------------------------------------------------
                              ORCA PROPERTY CALCULATIONS
------------------------------------------------------------------------------

GBWName                                 ... frag.gbw
Number of atoms                         ...     12
Number of basis functions               ...     72
Max core memory                         ...   1024 MB

Electric properties:
Dipole moment                           ... YES
Quadrupole moment                       ...  NO
Static polarizability (Dipole/Dipole)   ...  NO
Static polarizability (Dipole/Quad.)    ...  NO
Static polarizability (Quad./Quad.)     ...  NO
Static polarizability (Velocity)        ...  NO

Atomic electric properties:
Dipole moment                           ...  NO
Quadrupole moment                       ...  NO
Static polarizability                   ...  NO

Choice of electric origin               ... Center of mass
Position of electric origin             ...    41.474629    90.738732    78.409577

General magnetic properties:
Magnetizability                         ...  NO

EPR properties:
g-Tensor (aka g-matrix)                 ...  NO
Zero-Field splitting spin-orbit         ...  NO
Zero-field splitting spin-spin          ...  NO
Hyperfine couplings                     ...  NO (   0 nuclei)
Quadrupole couplings                    ...  NO (   0 nuclei)
Contact density                         ...  NO (   0 nuclei)

NMR properties:
Chemical shifts                         ...  NO (   0 nuclei)
Spin-rotation constants                 ...  NO (   0 nuclei)
Spin-spin couplings                     ...  NO (   0 nuclei,    0 pairs)

Choice of magnetic origin               ... GIAO
Position of magnetic origin             ...     0.000000     0.000000     0.000000

Properties with geometric perturbations:
SCF Hessian                             ...  NO
IR spectrum                             ...  NO
VCD spectrum                            ...  NO
X-ray spectroscopy properties:
SCF XES/XAS/RIXS spectra                ...  NO


-------------
DIPOLE MOMENT
-------------

Method             : SCF
Type of density    : Electron Density
Multiplicity       :   1
Irrep              :   0
Energy             :  -304.0005487796304919 Eh
Relativity type    : 
Basis              : AO
                                X                 Y                 Z
Electronic contribution:      0.209793515      -0.143311063      -0.016495848
Nuclear contribution   :      0.294888726      -0.890675823       0.542590928
                        -----------------------------------------
Total Dipole Moment    :      0.504682241      -1.033986886       0.526095080
                        -----------------------------------------
Magnitude (a.u.)       :      1.265151801
Magnitude (Debye)      :      3.215760317



--------------------
Rotational spectrum 
--------------------
 
Rotational constants in cm-1:             0.138596             0.066723             0.052702 
Rotational constants in MHz :          4155.015568          2000.300033          1579.980136 

Dipole components along the rotational axes: 
x,y,z [a.u.] :     1.113813    -0.107482    -0.590320 
x,y,z [Debye]:     2.831087    -0.273198    -1.500474 

 

Dipole moment calculation done in   0.0 sec 

Maximum memory used throughout the entire PROP-calculation: 2.9 MB

--------------------------------
SUGGESTED CITATIONS FOR THIS RUN
--------------------------------

Below you find a list of papers that are relevant to this ORCA run
We neither can nor want to force you to cite these papers, but we appreciate if you do
You receive ORCA, which is the product of decades of hard work by many enthusiastic individuals, for free
The only thing we kindly ask in return is that you cite our papers,
We deeply appreciate it, if you show your appreciation for ORCA by not just citing the generic ORCA reference.

Please note that relegating all ORCA citations to the supporting information does *not* help us.
SI sections are not indexed - citations you put there will not count into any citation statistics
But we need these citations in order to attract the funding resources that allow us to do what we are doing

Therefore, if you are a happy ORCA user, please consider citing a few of the papers listed below in the main body of your paper

In addition to the list printed below, the program has created the file frag.bibtex that contains the list in bibtex format
You can import this file easily into all common literature databanks and citation aid programs


List of essential papers. We consider these as the minimum necessary citations

  1. Neese,F.
     Software update: the ORCA program system, version 5.0
     WIRES Comput. Molec. Sci., 2022 12(1)e1606
     doi.org/10.1002/wcms.1606

List of papers to cite with high priority. The work reported in these papers was absolutely
necessary for this run to complete.
Our perspective: the developers of density functionals and basis sets usually get cited in chemistry papers
Good! But without the algorithms to do something with them, the functionals or basis sets would not do anything.
Hence, in our opinion, the algorithm design and method developments papers are equally worthy of getting cited

  1. Neese,F.
     The SHARK Integral Generation and Digestion System
     J. Comp. Chem., 2022  1-16
     doi.org/10.1002/jcc.26942

List of suggested additional citations. These are papers that are important in the 'surrounding' of 
of this run, or papers that preceded the highly important papers. If you like your results we are grateful for a citation.

  1. Neese,F.
     The ORCA program system
     WIRES Comput. Molec. Sci., 2012 2(1)73-78
     doi.org/10.1002/wcms.81
  2. Neese,F.
     Software update: the ORCA program system, version 4.0
     WIRES Comput. Molec. Sci., 2018 8(1)1-6
     doi.org/10.1002/wcms.1327
  3. Neese,F.; Wennmohs,F.; Becker,U.; Riplinger,C.
     The ORCA quantum chemistry program package
     J. Chem. Phys., 2020 152 Art. No. L224108
     doi.org/10.1063/5.0004608

List of optional additional citations

  1. Neese,F.
     Approximate second-order SCF convergence for spin unrestricted wavefunctions
     Chem. Phys. Lett., 2000 325(1-3)93-98
     doi.org/10.1016/s0009-2614(00)00662-x

Timings for individual modules:

Sum of individual times          ...        3.864 sec (=   0.064 min)
Startup calculation              ...        0.491 sec (=   0.008 min)  12.7 %
SCF iterations                   ...        2.560 sec (=   0.043 min)  66.3 %
Property calculations            ...        0.052 sec (=   0.001 min)   1.3 %
SCF Gradient evaluation          ...        0.760 sec (=   0.013 min)  19.7 %
                             ****ORCA TERMINATED NORMALLY****
TOTAL RUN TIME: 0 days 0 hours 0 minutes 4 seconds 56 msec
