
                                 *****************
                                 * O   R   C   A *
                                 *****************

                                            #,                                       
                                            ###                                      
                                            ####                                     
                                            #####                                    
                                            ######                                   
                                           ########,                                 
                                     ,,################,,,,,                         
                               ,,#################################,,                 
                          ,,##########################################,,             
                       ,#########################################, ''#####,          
                    ,#############################################,,   '####,        
                  ,##################################################,,,,####,       
                ,###########''''           ''''###############################       
              ,#####''   ,,,,##########,,,,          '''####'''          '####       
            ,##' ,,,,###########################,,,                        '##       
           ' ,,###''''                  '''############,,,                           
         ,,##''                                '''############,,,,        ,,,,,,###''
      ,#''                                            '''#######################'''  
     '                                                          ''''####''''         
             ,#######,   #######,   ,#######,      ##                                
            ,#'     '#,  ##    ##  ,#'     '#,    #''#        ,####,   ,####,        
            ##       ##  ##   ,#'  ##            #'  '#       #'       #'  '#        
            ##       ##  #######   ##           ,######,      #####,   #    #        
            '#,     ,#'  ##    ##  '#,     ,#' ,#      #,     #,   #   #,  ,#        
             '#######'   ##     ##  '#######'  #'      '#     '####' # '####'        



                #########################################################
                #                        -***-                          #
                #          Department of theory and spectroscopy        #
                #                                                       #
                #                      Frank Neese                      #
                #                                                       #
                #     Directorship, Architecture, Infrastructure        #
                #                    SHARK, DRIVERS                     #
                #        Core code/Algorithms in most modules           #
                #                                                       #
                #        Max Planck Institute fuer Kohlenforschung      #
                #                Kaiser Wilhelm Platz 1                 #
                #                 D-45470 Muelheim/Ruhr                 #
                #                      Germany                          #
                #                                                       #
                #                  All rights reserved                  #
                #                        -***-                          #
                #########################################################


                         Program Version 6.0.1  -  RELEASE   -


 With contributions from (in alphabetic order):
[Max-Planck-Institut fuer Kohlenforschung]                               
  Daniel Aravena         : Magnetic Suceptibility                        
  Michael Atanasov       : Ab Initio Ligand Field Theory (pilot matlab implementation)
  Alexander A. Auer      : GIAO ZORA, VPT2 properties, NMR spectrum      
  Ute Becker             : All parallelization in ORCA, NUMFREQ, NUMCALC 
  Giovanni Bistoni       : ED, misc. LED, open-shell LED, HFLD           
  Martin Brehm           : Molecular dynamics                            
  Dmytro Bykov           : pre 5.0 version of the SCF Hessian            
  Marcos Casanova-Páez   : Triplet and SCS-CIS(D). UHF-(DLPNO)-IP/EA/STEOM-CCSD. UHF-CVS-IP/STEOM-CCSD   
  Vijay G. Chilkuri      : MRCI spin determinant printing, contributions to CSF-ICE 
  Pauline Colinet        : FMM embedding                                 
  Dipayan Datta          : RHF DLPNO-CCSD density                        
  Achintya Kumar Dutta   : EOM-CC, STEOM-CC                              
  Nicolas Foglia         : Exact transition moments, OPA infrastructure, MCD improvements    
  Dmitry Ganyushin       : Spin-Orbit,Spin-Spin,Magnetic field MRCI      
  Miquel Garcia-Rates    : C-PCM and meta-GGA Hessian, CCSD/C-PCM, Gaussian charge scheme 
  Tiago L. C. Gouveia    : GS-ROHF, GS-ROCIS                             
  Yang Guo               : DLPNO-NEVPT2, F12-NEVPT2, CIM, IAO-localization        
  Andreas Hansen         : Spin unrestricted coupled pair/coupled cluster methods 
  Ingolf Harden          : AUTO-CI MPn and infrastructure                
  Benjamin Helmich-Paris : MC-RPA, TRAH-(SCF,CASSCF), AVAS, COSX integrals, SCF dyn. polar. 
  Lee Huntington         : MR-EOM, pCC                                   
  Robert Izsak           : Overlap fitted RIJCOSX, COSX-SCS-MP3, EOM     
  Riya Kayal             : Wick's Theorem for AUTO-CI, AUTO-CI UHF-CCSDT 
  Emily Kempfer          : AUTO-CI, RHF CISDT and CCSDT                  
  Christian Kollmar      : KDIIS, OOCD, Brueckner-CCSD(T), CCSD density, CASPT2, CASPT2-K, improved NEVPT2 
  Axel Koslowski         : Symmetry handling                             
  Simone Kossmann        : meta-GGA functionals, TD-DFT gradient, OOMP2, (MP2 Hessian; deprecated post 5.0) 
  Lucas Lang             : DCDCAS                                        
  Marvin Lechner         : AUTO-CI (C++ implementation), FIC-MRCC        
  Spencer Leger          : CASSCF response                               
  Dagmar Lenk            : GEPOL surface, SMD, ORCA-2-JSON               
  Dimitrios Liakos       : Extrapolation schemes; Compound Job, initial MDCI parallelization 
  Dimitrios Manganas     : Further ROCIS development; embedding schemes. LFT, Crystal Embedding 
  Dimitrios Pantazis     : SARC Basis sets                               
  Anastasios Papadopoulos: AUTO-CI, single reference methods and gradients 
  Taras Petrenko         : pre 6.0 DFT Hessian and TD-DFT gradient, (ASA, deprecated), ECA, 1-Electron XAS/XES, NRVS 
  Peter Pinski           : DLPNO-MP2, DLPNO-MP2 Gradient                 
  Christoph Reimann      : Effective Core Potentials                     
  Marius Retegan         : Local ZFS, SOC                                
  Christoph Riplinger    : Optimizer, TS searches, QM/MM, DLPNO-CCSD(T), (RO)-DLPNO pert. Triples 
  Michael Roemelt        : Original ROCIS implementation                 
  Masaaki Saitow         : Open-shell DLPNO-CCSD energy and density      
  Barbara Sandhoefer     : DKH picture change effects                    
  Kantharuban Sivalingam : CASSCF convergence/infrastructure, NEVPT2 and variants, FIC-MRCI 
  Bernardo de Souza      : ESD, SOC TD-DFT                               
  Georgi L. Stoychev     : AutoAux, RI-MP2 NMR, DLPNO-MP2 response, X2C  
  Van Anh Tran           : RI-MP2 g-tensors                              
  Willem Van den Heuvel  : Paramagnetic NMR                              
  Zikuan Wang            : NOTCH, Electric field optimization            
  Frank Wennmohs         : Technical directorship and infrastructure     
  Hang Xu                : AUTO-CI-Response properties                   
                                                                         
[FACCTs GmbH]                                                            
  Markus Bursch, Miquel Garcia-Rates, Christoph Riplinger, Bernardo de Souza, Georgi L. Stoychev 
                                                                 
  APM, Basis sets (HGBS, AHGBS, def-TZVP (Ac-Lr), def2-XVPD (La-Lu)), CI-OPT, improved COSX, DLPNO-Multilevel,           
  DOCKER, DRACO, updates on ESD, GOAT, IRC, LR-CPCM, MBIS, meta-GGA TD-DFT gradient, ML-optimized integration grids, 
  MM, NACMEs, nearIR, NEB, NEB-TS, NL-DFT gradient (VV10), 2- and 3-layer-ONIOM, interface openCOSMO-RS, QMMM,   
  Crystal-QMMM, SF, symmetry and pop. for TD-DFT, r2SCAN hybrids, SOLVATOR                                   
                                                                         
[Other institutions]                                                     
  V. Asgeirsson          : NEB                                           
  Christoph Bannwarth    : sTDA-DFT, sTD-DFT, PBEh-3c, B97-3c, D3        
  Sebastian Ehlert       : rSCAN, r2SCAN, r2SCAN-3c, D4, dhf basis sets  
  Marvin Friede          : D4 for Fr, Ra, Ac-Lr                          
  Lars Goerigk           : TD-DFT with DH, B97 family of functionals     
  Stefan Grimme          : VdW corrections, initial TS optimization, DFT functionals, gCP, sTDA/sTD-DF 
  Waldemar Hujo          : DFT-NL                                        
  H. Jonsson             : NEB                                           
  Holger Kruse           : gCP                                           
  Marcel Mueller         : wB97X-3c, vDZP basis set                      
  Hagen Neugebauer       : wr2SCAN                                       
  Tobias Risthaus        : range-separated hybrid DFT                    
  Lukas Wittmann         : regularized MP2, r2SCAN double-hybrids, wr2SCAN        
                                                                         
We gratefully acknowledge several colleagues who have allowed us to      
interface, adapt or use parts of their codes:                            
  Ed Valeev, F. Pavosevic, A. Kumar             : LibInt (2-el integral package), F12 methods 
  Garnet Chan, S. Sharma, J. Yang, R. Olivares  : DMRG                   
  Ulf Ekstrom                                   : XCFun DFT Library      
  Mihaly Kallay                                 : mrcc  (arbitrary order and MRCC methods)
  Frank Weinhold                                : gennbo (NPA and NBO analysis)           
  Simon Mueller                                 : openCOSMO-RS                            
  Christopher J. Cramer and Donald G. Truhlar   : smd solvation model                     
  S Lehtola, MJT Oliveira, MAL Marques          : LibXC Library                           
  Liviu Ungur et al                             : ANISO software                          


 Your calculation uses the libint2 library for the computation of 2-el integrals
 For citations please refer to: http://libint.valeyev.net

 Your ORCA version has been built with support for libXC version: 6.2.2
 For citations please refer to: https://libxc.gitlab.io

 This ORCA versions uses:
   CBLAS   interface :  Fast vector & matrix operations
   LAPACKE interface :  Fast linear algebra routines
   SCALAPACK package :  Parallel linear algebra routines
   Shared memory     :  Shared parallel matrices
   BLAS/LAPACK       :  OpenBLAS 0.3.27  USE64BITINT DYNAMIC_ARCH NO_AFFINITY SkylakeX SINGLE_THREADED
        Core in use  :  SkylakeX
   Copyright (c) 2011-2014, The OpenBLAS Project


================================================================================

----- Orbital basis set information -----
Your calculation utilizes the basis: 6-31G*
   H-He, Li-Ne : W. J. Hehre, R. Ditchfield and J.A. Pople, J. Chem. Phys. 56, 2257 (1972).
                 Note: He and Ne are unpublished basis sets taken from the Gaussian program.
                 Note: Li and B from J. D. Dill and J. A. Pople, J. Chem. Phys. 62, 2921 (1975).
   Na - Ar     : M. M. Francl, W. J. Pietro, W. J. Hehre, J. S. Binkley, M. S. Gordon, 
                 D. J. DeFrees and J. A. Pople, J. Chem. Phys. 77, 3654 (1982).
   K - Zn      : V. A. Rassolov, J. A. Pople, M. A. Ratner, and T. L. Windus, J. Chem. Phys. 109, 1223 (1998).

================================================================================
                                        WARNINGS
                       Please study these warnings very carefully!
================================================================================


================================================================================
                                       INPUT FILE
================================================================================
NAME = frag.inp
|  1> !HF 6-31G* EnGrad
|  2> %pal nprocs 1 end
|  3> *xyz 0 1
|  4> O 24.10596000 46.93173000 41.50917000
|  5> H 24.52341000 46.31399000 41.96223000
|  6> H 24.52212000 47.66562000 41.73132000
|  7> O 20.35232000 49.63574000 40.01023000
|  8> H 20.79050000 48.92392000 40.26012000
|  9> H 19.54326000 49.49202000 40.30334000
| 10> O 21.78987000 47.25010000 37.48256000
| 11> H 21.67133000 47.22017000 38.34638000
| 12> H 21.14108000 47.76263000 37.20411000
| 13> O 21.99613000 48.36911000 43.54199000
| 14> H 21.97702000 49.24128000 43.53308000
| 15> H 21.46413000 48.14557000 42.88766000
| 16> *
| 17> 
| 18>                          ****END OF INPUT****
================================================================================

                     *******************************
                     * Energy+Gradient Calculation *
                     *******************************

---------------------------------
CARTESIAN COORDINATES (ANGSTROEM)
---------------------------------
  O     24.105960   46.931730   41.509170
  H     24.523410   46.313990   41.962230
  H     24.522120   47.665620   41.731320
  O     20.352320   49.635740   40.010230
  H     20.790500   48.923920   40.260120
  H     19.543260   49.492020   40.303340
  O     21.789870   47.250100   37.482560
  H     21.671330   47.220170   38.346380
  H     21.141080   47.762630   37.204110
  O     21.996130   48.369110   43.541990
  H     21.977020   49.241280   43.533080
  H     21.464130   48.145570   42.887660

----------------------------
CARTESIAN COORDINATES (A.U.)
----------------------------
  NO LB      ZA    FRAG     MASS         X           Y           Z
   0 O     8.0000    0    15.999   45.553663   88.688117   78.440963
   1 H     1.0000    0     1.008   46.342529   87.520757   79.297123
   2 H     1.0000    0     1.008   46.340091   90.074968   78.860766
   3 O     8.0000    0    15.999   38.460311   93.797955   75.608377
   4 H     1.0000    0     1.008   39.288351   92.452810   76.080601
   5 H     1.0000    0     1.008   36.931409   93.526364   76.162275
   6 O     8.0000    0    15.999   41.176887   89.289749   70.831773
   7 H     1.0000    0     1.008   40.952879   89.233189   72.464156
   8 H     1.0000    0     1.008   39.950851   90.258290   70.305579
   9 O     8.0000    0    15.999   41.566662   91.404371   82.282436
  10 H     1.0000    0     1.008   41.530549   93.052534   82.265599
  11 H     1.0000    0     1.008   40.561327   90.981942   81.045932

--------------------------------
INTERNAL COORDINATES (ANGSTROEM)
--------------------------------
 O      0   0   0     0.000000000000     0.00000000     0.00000000
 H      1   0   0     0.872427976225     0.00000000     0.00000000
 H      1   2   0     0.872430111929   103.60043743     0.00000000
 O      1   2   3     4.862952236379   157.38780147   238.36472283
 H      4   1   2     0.872430190273    21.62011441   320.05077009
 H      4   1   2     0.872437386922   121.37625074   357.75029485
 O      5   4   1     3.393413229022   108.41619438   262.70415579
 H      7   5   4     0.872429096775    33.53678511   194.84682685
 H      7   5   4     0.872439033687    75.66802933   340.40737457
 O      3   1   2     3.186541935877    87.26422674   254.97016683
 H     10   3   1     0.872424832923   103.43046951   210.28054201
 H     10   3   1     0.872434456277    90.03694945   314.27919388

---------------------------
INTERNAL COORDINATES (A.U.)
---------------------------
 O      0   0   0     0.000000000000     0.00000000     0.00000000
 H      1   0   0     1.648649946636     0.00000000     0.00000000
 H      1   2   0     1.648653982532   103.60043743     0.00000000
 O      1   2   3     9.189647929096   157.38780147   238.36472283
 H      4   1   2     1.648654130581    21.62011441   320.05077009
 H      4   1   2     1.648667730277   121.37625074   357.75029485
 O      5   4   1     6.412621662077   108.41619438   262.70415579
 H      7   5   4     1.648652064169    33.53678511   194.84682685
 H      7   5   4     1.648670842211    75.66802933   340.40737457
 O      3   1   2     6.021691573062    87.26422674   254.97016683
 H     10   3   1     1.648644006656   103.43046951   210.28054201
 H     10   3   1     1.648662192161    90.03694945   314.27919388

---------------------
BASIS SET INFORMATION
---------------------
There are 2 groups of distinct atoms

 Group   1 Type O   : 10s4p1d contracted to 3s2p1d pattern {631/31/1}
 Group   2 Type H   : 4s contracted to 2s pattern {31}

Atom   0O    basis set group =>   1
Atom   1H    basis set group =>   2
Atom   2H    basis set group =>   2
Atom   3O    basis set group =>   1
Atom   4H    basis set group =>   2
Atom   5H    basis set group =>   2
Atom   6O    basis set group =>   1
Atom   7H    basis set group =>   2
Atom   8H    basis set group =>   2
Atom   9O    basis set group =>   1
Atom  10H    basis set group =>   2
Atom  11H    basis set group =>   2
------------------------------------------------------------------------------
                             ORCA STARTUP CALCULATIONS
------------------------------------------------------------------------------
------------------------------------------------------------------------------
                   ___                                                        
                  /   \      - P O W E R E D   B Y -                         
                 /     \                                                     
                 |  |  |   _    _      __       _____    __    __             
                 |  |  |  | |  | |    /  \     |  _  \  |  |  /  |          
                  \  \/   | |  | |   /    \    | | | |  |  | /  /          
                 / \  \   | |__| |  /  /\  \   | |_| |  |  |/  /          
                |  |  |   |  __  | /  /__\  \  |    /   |      \           
                |  |  |   | |  | | |   __   |  |    \   |  |\   \          
                \     /   | |  | | |  |  |  |  | |\  \  |  | \   \       
                 \___/    |_|  |_| |__|  |__|  |_| \__\ |__|  \__/        
                                                                              
                      - O R C A' S   B I G   F R I E N D -                    
                                      &                                       
                       - I N T E G R A L  F E E D E R -                       
                                                                              
 v1 FN, 2020, v2 2021, v3 2022-2024                                           
------------------------------------------------------------------------------


----------------------
SHARK INTEGRAL PACKAGE
----------------------

Number of atoms                             ...     12
Number of basis functions                   ...     72
Number of shells                            ...     40
Maximum angular momentum                    ...      2
Integral batch strategy                     ... SHARK/LIBINT Hybrid
RI-J (if used) integral strategy            ... SPLIT-RIJ (Revised 2003 algorithm where possible)
Printlevel                                  ...      1
Contraction scheme used                     ... SEGMENTED contraction
Prescreening option                         ... SCHWARTZ
   Thresh                                   ... 2.500e-11
   Tcut                                     ... 2.500e-12
   Tpresel                                  ... 2.500e-12 
Coulomb Range Separation                    ... NOT USED
Exchange Range Separation                   ... NOT USED
Multipole approximations                    ... NOT USED
Finite Nucleus Model                        ... NOT USED
CABS basis                                  ... NOT available
Auxiliary Coulomb fitting basis             ... NOT available
Auxiliary J/K fitting basis                 ... NOT available
Auxiliary Correlation fitting basis         ... NOT available
Auxiliary 'external' fitting basis          ... NOT available

Checking pre-screening integrals            ... done (  0.0 sec) Dimension = 40
Check shell pair data                       ... done (  0.0 sec)
Shell pair information
Shell pair cut-off parameter TPreSel        ...   2.5e-12
Total number of shell pairs                 ...       820
Shell pairs after pre-screening             ...       682
Total number of primitive shell pairs       ...      4386
Primitive shell pairs kept                  ...      2317
          la=0 lb=0:    342 shell pairs
          la=1 lb=0:    188 shell pairs
          la=1 lb=1:     32 shell pairs
          la=2 lb=0:     86 shell pairs
          la=2 lb=1:     26 shell pairs
          la=2 lb=2:      8 shell pairs

Calculating one electron integrals          ... done (  0.0 sec)
Calculating Nuclear repulsion               ... done (  0.0 sec) ENN=    114.858801781962 Eh

Diagonalization of the overlap matrix:
Smallest eigenvalue                        ... 4.161e-02
Time for diagonalization                   ...    0.002 sec
Threshold for overlap eigenvalues          ... 1.000e-07
Number of eigenvalues below threshold      ... 0
Time for construction of square roots      ...    0.010 sec
Total time needed                          ...    0.017 sec

-------------------
DFT GRID GENERATION
-------------------

General Integration Accuracy     IntAcc      ... 4.388
Radial Grid Type                 RadialGrid  ... OptM3 with GC (2021)
Angular Grid (max. ang.)         AngularGrid ... 4 (Lebedev-302)
Angular grid pruning method      GridPruning ... 4 (adaptive)
Weight generation scheme         WeightScheme... mBecke (2022)
Basis function cutoff            BFCut       ... 1.0000e-11
Integration weight cutoff        WCut        ... 1.0000e-14
Partially contracted basis set               ... off
Rotationally invariant grid construction     ... off
Angular grids for H and He will be reduced by one unit

Total number of grid points                  ...    50844
Total number of batches                      ...      801
Average number of points per batch           ...       63
Average number of grid points per atom       ...     4237
Initializing property integral containers    ... done (  0.0 sec)

SHARK setup successfully completed in   0.5 seconds

Maximum memory used throughout the entire STARTUP-calculation: 17.3 MB
-------------------------------------------------------------------------------
                                 ORCA GUESS
                   Start orbitals & Density for SCF / CASSCF
-------------------------------------------------------------------------------

------------
SCF SETTINGS
------------
Hamiltonian:
 Ab initio Hamiltonian  Method          .... Hartree-Fock(GTOs)


General Settings:
 Integral files         IntName         .... frag
 Hartree-Fock type      HFTyp           .... RHF
 Total Charge           Charge          ....    0
 Multiplicity           Mult            ....    1
 Number of Electrons    NEL             ....   40
 Basis Dimension        Dim             ....   72
 Nuclear Repulsion      ENuc            ....    114.8588017820 Eh

Convergence Acceleration:
 AO-DIIS                CNVDIIS         .... on
   Start iteration      DIISMaxIt       ....    12
   Startup error        DIISStart       ....  0.200000
   # of expansion vecs  DIISMaxEq       ....     5
   Bias factor          DIISBfac        ....   1.050
   Max. coefficient     DIISMaxC        ....  10.000
 MO-DIIS                CNVKDIIS        .... off
 Trust-Rad. Augm. Hess. CNVTRAH         .... auto
   Auto Start mean grad. ratio tolernc. ....  1.125000
   Auto Start start iteration           ....    50
   Auto Start num. interpolation iter.  ....    10
   Max. Number of Micro iterations      ....    24
   Max. Number of Macro iterations      .... Maxiter - #DIIS iter
   Number of Davidson start vectors     ....     2
   Converg. threshold    (grad. norm)   ....   1.000e-05
   Grad. Scal. Fac. for Micro threshold ....   0.100
   Minimum threshold for Micro iter.    ....   1.000e-02
   NR start threshold (gradient norm)   ....   1.000e-04
   Initial trust radius                 ....   0.400
   Minimum AH scaling param. (alpha)    ....   1.000
   Maximum AH scaling param. (alpha)    .... 1000.000
   Quad. conv. algorithm                .... NR
   White noise on init. David. guess    .... on
   Maximum white noise                  ....   0.010
   Pseudo random numbers                .... off
   Inactive MOs                         .... canonical
   Orbital update algorithm             .... Taylor
   Preconditioner                       .... Diag
   Full preconditioner red. dimension   ....   250
 SOSCF                  CNVSOSCF        .... on
   Start iteration      SOSCFMaxIt      ....   150
   Startup grad/error   SOSCFStart      ....  0.003300
   Hessian update       SOSCFHessUp     .... L-BFGS
 Level Shifting         CNVShift        .... on
   Level shift para.    LevelShift      ....    0.2500
   Turn off err/grad.   ShiftErr        ....    0.0010
 Zerner damping         CNVZerner       .... off
 Static damping         CNVDamp         .... on
   Fraction old density DampFac         ....    0.7000
   Max. Damping (<1)    DampMax         ....    0.9800
   Min. Damping (>=0)   DampMin         ....    0.0000
   Turn off err/grad.   DampErr         ....    0.1000

SCF Procedure:
 Maximum # iterations   MaxIter         ....   125
 SCF integral mode      SCFMode         .... Direct
   Integral package                     .... SHARK and LIBINT hybrid scheme
 Reset frequency        DirectResetFreq ....    20
 Integral Threshold     Thresh          ....  2.500e-11 Eh
 Primitive CutOff       TCut            ....  2.500e-12 Eh

Convergence Tolerance:
 Convergence Check Mode ConvCheckMode   .... Total+1el-Energy
 Convergence forced     ConvForced      .... 0
 Energy Change          TolE            ....  1.000e-08 Eh
 1-El. energy change                    ....  1.000e-05 Eh
 Orbital Gradient       TolG            ....  1.000e-05
 Orbital Rotation angle TolX            ....  1.000e-05
 DIIS Error             TolErr          ....  5.000e-07

------------------------------
INITIAL GUESS: MODEL POTENTIAL
------------------------------
Loading Hartree-Fock densities                     ... done
Calculating cut-offs                               ... done
Initializing the effective Hamiltonian             ... done
Setting up the integral package (SHARK)            ... done
Starting the Coulomb interaction                   ... done (   0.0 sec)
Making the grid                                    ... done (   0.1 sec)
Mapping shells                                     ... done
Starting the XC term evaluation                    ... done (   0.0 sec)
Transforming the Hamiltonian                       ... done (   0.0 sec)
Diagonalizing the Hamiltonian                      ... done (   0.0 sec)
Back transforming the eigenvectors                 ... done (   0.0 sec)
Now organizing SCF variables                       ... done
                      ------------------
                      INITIAL GUESS DONE (   0.1 sec)
                      ------------------
             **** ENERGY FILE WAS UPDATED (frag.en.tmp) ****
Finished Guess after   0.2 sec
Maximum memory used throughout the entire GUESS-calculation: 7.3 MB

-------------------------------------------------------------------------------------------
                                      ORCA LEAN-SCF
                              memory conserving SCF solver
-------------------------------------------------------------------------------------------

----------------------------------------D-I-I-S--------------------------------------------
Iteration    Energy (Eh)           Delta-E    RMSDP     MaxDP     DIISErr   Damp  Time(sec)
-------------------------------------------------------------------------------------------
               ***  Starting incremental Fock matrix formation  ***
    1    -303.5639333660211037     0.00e+00  6.27e-03  7.29e-02  3.32e-01  0.700   0.2
    2    -303.7261337238259671    -1.62e-01  4.27e-03  4.99e-02  2.01e-01  0.700   0.2
                               ***Turning on AO-DIIS***
    3    -303.8137345540892511    -8.76e-02  1.67e-03  2.15e-02  1.12e-01  0.700   0.1
    4    -303.8666403538773579    -5.29e-02  1.01e-03  1.38e-02  7.64e-02  0.700   0.1
    5    -303.9016116552841709    -3.50e-02  2.34e-03  3.27e-02  5.44e-02  0.000   0.2
    6    -303.9796276783445137    -7.80e-02  1.68e-04  1.81e-03  3.43e-03  0.000   0.1
                              *** Initializing SOSCF ***
---------------------------------------S-O-S-C-F--------------------------------------
Iteration    Energy (Eh)           Delta-E    RMSDP     MaxDP     MaxGrad    Time(sec)
--------------------------------------------------------------------------------------
    7    -303.9796923181934858    -6.46e-05  1.04e-04  7.76e-04  1.16e-03     0.1
               *** Restarting incremental Fock matrix formation ***
    8    -303.9797048788543066    -1.26e-05  4.71e-05  4.94e-04  2.23e-04     0.1
    9    -303.9797062124536069    -1.33e-06  2.97e-05  2.23e-04  9.71e-05     0.1
   10    -303.9797064606771642    -2.48e-07  3.95e-06  4.38e-05  3.97e-05     0.1
   11    -303.9797064744489035    -1.38e-08  9.10e-07  9.84e-06  6.03e-06     0.1
   12    -303.9797064749560604    -5.07e-10  1.90e-07  1.84e-06  9.85e-07     0.1
                 **** Energy Check signals convergence ****

               *****************************************************
               *                     SUCCESS                       *
               *           SCF CONVERGED AFTER  12 CYCLES          *
               *****************************************************

             **** ENERGY FILE WAS UPDATED (frag.en.tmp) ****

----------------
TOTAL SCF ENERGY
----------------

Total Energy       :       -303.97970647495606 Eh           -8271.70834 eV

Components:
Nuclear Repulsion  :        114.85880178196186 Eh            3125.46689 eV
Electronic Energy  :       -418.83850825691792 Eh          -11397.17523 eV
One Electron Energy:       -647.27773750463041 Eh          -17613.32268 eV
Two Electron Energy:        228.43922924771249 Eh            6216.14745 eV

Virial components:
Potential Energy   :       -609.49810819195022 Eh          -16585.28670 eV
Kinetic Energy     :        305.51840171699416 Eh            8313.57836 eV
Virial Ratio       :          1.99496365772605

---------------
SCF CONVERGENCE
---------------

  Last Energy change         ...    5.0716e-10  Tolerance :   1.0000e-08
  Last MAX-Density change    ...    1.8426e-06  Tolerance :   1.0000e-07
  Last RMS-Density change    ...    1.8982e-07  Tolerance :   5.0000e-09
  Last DIIS Error            ...    1.1569e-03  Tolerance :   5.0000e-07
  Last Orbital Gradient      ...    9.8517e-07  Tolerance :   1.0000e-05
  Last Orbital Rotation      ...    8.9718e-07  Tolerance :   1.0000e-05


----------------
ORBITAL ENERGIES
----------------

  NO   OCC          E(Eh)            E(eV) 
   0   2.0000     -20.560735      -559.4860 
   1   2.0000     -20.543384      -559.0139 
   2   2.0000     -20.535786      -558.8071 
   3   2.0000     -20.530645      -558.6672 
   4   2.0000      -1.414041       -38.4780 
   5   2.0000      -1.396824       -38.0095 
   6   2.0000      -1.388789       -37.7909 
   7   2.0000      -1.384099       -37.6633 
   8   2.0000      -0.776284       -21.1238 
   9   2.0000      -0.759334       -20.6625 
  10   2.0000      -0.751979       -20.4624 
  11   2.0000      -0.746654       -20.3175 
  12   2.0000      -0.610272       -16.6064 
  13   2.0000      -0.593995       -16.1634 
  14   2.0000      -0.588709       -16.0196 
  15   2.0000      -0.581459       -15.8223 
  16   2.0000      -0.527250       -14.3472 
  17   2.0000      -0.514787       -14.0081 
  18   2.0000      -0.497573       -13.5396 
  19   2.0000      -0.497041       -13.5252 
  20   0.0000       0.159849         4.3497 
  21   0.0000       0.228101         6.2069 
  22   0.0000       0.244451         6.6518 
  23   0.0000       0.268294         7.3007 
  24   0.0000       0.294045         8.0014 
  25   0.0000       0.326767         8.8918 
  26   0.0000       0.334544         9.1034 
  27   0.0000       0.415640        11.3101 
  28   0.0000       1.034908        28.1613 
  29   0.0000       1.037599        28.2345 
  30   0.0000       1.052201        28.6319 
*Only the first 10 virtual orbitals were printed.

                    ********************************
                    * MULLIKEN POPULATION ANALYSIS *
                    ********************************

-----------------------
MULLIKEN ATOMIC CHARGES
-----------------------
   0 O :   -0.893013
   1 H :    0.446823
   2 H :    0.446241
   3 O :   -0.889731
   4 H :    0.445142
   5 H :    0.446059
   6 O :   -0.888616
   7 H :    0.442612
   8 H :    0.444814
   9 O :   -0.884797
  10 H :    0.443664
  11 H :    0.440801
Sum of atomic charges:    0.0000000

--------------------------------
MULLIKEN REDUCED ORBITAL CHARGES
--------------------------------
  0 O s       :     3.843812  s :     3.843812
      pz      :     1.851703  p :     5.016327
      px      :     1.801464
      py      :     1.363160
      dz2     :     0.003101  d :     0.032874
      dxz     :     0.006900
      dyz     :     0.008326
      dx2y2   :     0.000822
      dxy     :     0.013726

  1 H s       :     0.553177  s :     0.553177

  2 H s       :     0.553759  s :     0.553759

  3 O s       :     3.850431  s :     3.850431
      pz      :     1.910277  p :     5.005428
      px      :     1.418333
      py      :     1.676818
      dz2     :     0.003596  d :     0.033872
      dxz     :     0.006312
      dyz     :     0.005829
      dx2y2   :     0.009921
      dxy     :     0.008214

  4 H s       :     0.554858  s :     0.554858

  5 H s       :     0.553941  s :     0.553941

  6 O s       :     3.847296  s :     3.847296
      pz      :     1.444953  p :     5.007793
      px      :     1.733620
      py      :     1.829220
      dz2     :     0.015156  d :     0.033526
      dxz     :     0.004411
      dyz     :     0.001204
      dx2y2   :     0.002698
      dxy     :     0.010057

  7 H s       :     0.557388  s :     0.557388

  8 H s       :     0.555186  s :     0.555186

  9 O s       :     3.847586  s :     3.847586
      pz      :     1.727564  p :     5.003620
      px      :     1.816549
      py      :     1.459508
      dz2     :     0.007243  d :     0.033590
      dxz     :     0.010485
      dyz     :     0.001721
      dx2y2   :     0.012413
      dxy     :     0.001729

 10 H s       :     0.556336  s :     0.556336

 11 H s       :     0.559199  s :     0.559199



                     *******************************
                     * LOEWDIN POPULATION ANALYSIS *
                     *******************************

----------------------
LOEWDIN ATOMIC CHARGES
----------------------
   0 O :   -0.628576
   1 H :    0.314720
   2 H :    0.313851
   3 O :   -0.623527
   4 H :    0.309900
   5 H :    0.314739
   6 O :   -0.624456
   7 H :    0.310034
   8 H :    0.313524
   9 O :   -0.622499
  10 H :    0.312942
  11 H :    0.309349

-------------------------------
LOEWDIN REDUCED ORBITAL CHARGES
-------------------------------
  0 O s       :     3.554019  s :     3.554019
      pz      :     1.857563  p :     5.033047
      px      :     1.810415
      py      :     1.365069
      dz2     :     0.003687  d :     0.041510
      dxz     :     0.007308
      dyz     :     0.011000
      dx2y2   :     0.001655
      dxy     :     0.017861

  1 H s       :     0.685280  s :     0.685280

  2 H s       :     0.686149  s :     0.686149

  3 O s       :     3.556060  s :     3.556060
      pz      :     1.914785  p :     5.024771
      px      :     1.422853
      py      :     1.687133
      dz2     :     0.004249  d :     0.042696
      dxz     :     0.007975
      dyz     :     0.006257
      dx2y2   :     0.013169
      dxy     :     0.011045

  4 H s       :     0.690100  s :     0.690100

  5 H s       :     0.685261  s :     0.685261

  6 O s       :     3.554968  s :     3.554968
      pz      :     1.452299  p :     5.027109
      px      :     1.741826
      py      :     1.832984
      dz2     :     0.020228  d :     0.042379
      dxz     :     0.005578
      dyz     :     0.001665
      dx2y2   :     0.002790
      dxy     :     0.012119

  7 H s       :     0.689966  s :     0.689966

  8 H s       :     0.686476  s :     0.686476

  9 O s       :     3.555755  s :     3.555755
      pz      :     1.734032  p :     5.024223
      px      :     1.821980
      py      :     1.468212
      dz2     :     0.009137  d :     0.042520
      dxz     :     0.012789
      dyz     :     0.002290
      dx2y2   :     0.016188
      dxy     :     0.002116

 10 H s       :     0.687058  s :     0.687058

 11 H s       :     0.690651  s :     0.690651



                      *****************************
                      * MAYER POPULATION ANALYSIS *
                      *****************************

  NA   - Mulliken gross atomic population
  ZA   - Total nuclear charge
  QA   - Mulliken gross atomic charge
  VA   - Mayer's total valence
  BVA  - Mayer's bonded valence
  FA   - Mayer's free valence

  ATOM       NA         ZA         QA         VA         BVA        FA
  0 O      8.8930     8.0000    -0.8930     1.5536     1.5536     0.0000
  1 H      0.5532     1.0000     0.4468     0.7657     0.7657     0.0000
  2 H      0.5538     1.0000     0.4462     0.7676     0.7676     0.0000
  3 O      8.8897     8.0000    -0.8897     1.5527     1.5527     0.0000
  4 H      0.5549     1.0000     0.4451     0.7674     0.7674     0.0000
  5 H      0.5539     1.0000     0.4461     0.7657     0.7657     0.0000
  6 O      8.8886     8.0000    -0.8886     1.5523     1.5523     0.0000
  7 H      0.5574     1.0000     0.4426     0.7698     0.7698    -0.0000
  8 H      0.5552     1.0000     0.4448     0.7673     0.7673     0.0000
  9 O      8.8848     8.0000    -0.8848     1.5583     1.5583     0.0000
 10 H      0.5563     1.0000     0.4437     0.7674     0.7674     0.0000
 11 H      0.5592     1.0000     0.4408     0.7722     0.7722     0.0000

  Mayer bond orders larger than 0.100000
B(  0-O ,  1-H ) :   0.7751 B(  0-O ,  2-H ) :   0.7738 B(  3-O ,  4-H ) :   0.7701 
B(  3-O ,  5-H ) :   0.7753 B(  6-O ,  7-H ) :   0.7747 B(  6-O ,  8-H ) :   0.7756 
B(  9-O , 10-H ) :   0.7766 B(  9-O , 11-H ) :   0.7753 

-------
TIMINGS
-------

Total SCF time: 0 days 0 hours 0 min 1 sec 

Total time                  ....       1.732 sec
Sum of individual times     ....       1.667 sec  ( 96.2%)

SCF preparation             ....       0.056 sec  (  3.3%)
Fock matrix formation       ....       1.258 sec  ( 72.6%)
  Startup                   ....       0.017 sec  (  1.3% of F)
  Coulomb+Exchange Fock     ....       1.178 sec  ( 93.6% of F)
Diagonalization             ....       0.000 sec  (  0.0%)
Density matrix formation    ....       0.112 sec  (  6.4%)
Total Energy calculation    ....       0.025 sec  (  1.4%)
Population analysis         ....       0.015 sec  (  0.9%)
Orbital Transformation      ....       0.018 sec  (  1.0%)
Orbital Orthonormalization  ....       0.000 sec  (  0.0%)
DIIS solution               ....       0.120 sec  (  6.9%)
SOSCF solution              ....       0.064 sec  (  3.7%)
Finished LeanSCF after   1.7 sec

Maximum memory used throughout the entire LEANSCF-calculation: 8.2 MB

-------------------------   --------------------
FINAL SINGLE POINT ENERGY      -303.979706474956
-------------------------   --------------------

------------------------------------------------------------------------------
                         ORCA SCF GRADIENT CALCULATION
------------------------------------------------------------------------------

Nuc. rep. gradient        (SHARK) ... done (  0.0 sec)
HCore & Overlap gradient  (SHARK) ... done (  0.0 sec)
Two-electron gradient     (SHARK) ... done (  0.4 sec)

------------------
CARTESIAN GRADIENT
------------------

   1   O   :    0.096333453    0.013872274    0.081994848
   2   H   :   -0.047508604    0.086080923   -0.055799358
   3   H   :   -0.046866865   -0.099670795   -0.024903738
   4   O   :   -0.043260000   -0.096490593    0.061880324
   5   H   :   -0.065751930    0.088164530   -0.028298425
   6   H   :    0.108430497    0.009736963   -0.033847841
   7   O   :   -0.087507013    0.056746035    0.067451847
   8   H   :    0.006497978    0.009259226   -0.111726308
   9   H   :    0.080570973   -0.066463166    0.044454222
  10   O   :   -0.062486605    0.073276276   -0.077497999
  11   H   :   -0.003109304   -0.113467909   -0.006290991
  12   H   :    0.064657419    0.038956235    0.082583419

Difference to translation invariance:
           :   -0.0000000000   -0.0000000000   -0.0000000000

Difference to rotation invariance:
           :   -0.0000000345    0.0000002330    0.0000000679

Norm of the Cartesian gradient     ...    0.4053130408
RMS gradient                       ...    0.0675521735
MAX gradient                       ...    0.1134679089

-------
TIMINGS
-------

Total SCF gradient time     ....        0.450 sec

Densities                   ....       0.000 sec  (  0.0%)
One electron gradient       ....       0.037 sec  (  8.1%)
Two electron gradient       ....       0.414 sec  ( 91.8%)

Maximum memory used throughout the entire SCFGRAD-calculation: 14.0 MB

------------------------------------------------------------------------------
                              ORCA PROPERTY CALCULATIONS
------------------------------------------------------------------------------

GBWName                                 ... frag.gbw
Number of atoms                         ...     12
Number of basis functions               ...     72
Max core memory                         ...   1024 MB

Electric properties:
Dipole moment                           ... YES
Quadrupole moment                       ...  NO
Static polarizability (Dipole/Dipole)   ...  NO
Static polarizability (Dipole/Quad.)    ...  NO
Static polarizability (Quad./Quad.)     ...  NO
Static polarizability (Velocity)        ...  NO

Atomic electric properties:
Dipole moment                           ...  NO
Quadrupole moment                       ...  NO
Static polarizability                   ...  NO

Choice of electric origin               ... Center of mass
Position of electric origin             ...    41.666761    90.805406    76.821031

General magnetic properties:
Magnetizability                         ...  NO

EPR properties:
g-Tensor (aka g-matrix)                 ...  NO
Zero-Field splitting spin-orbit         ...  NO
Zero-field splitting spin-spin          ...  NO
Hyperfine couplings                     ...  NO (   0 nuclei)
Quadrupole couplings                    ...  NO (   0 nuclei)
Contact density                         ...  NO (   0 nuclei)

NMR properties:
Chemical shifts                         ...  NO (   0 nuclei)
Spin-rotation constants                 ...  NO (   0 nuclei)
Spin-spin couplings                     ...  NO (   0 nuclei,    0 pairs)

Choice of magnetic origin               ... GIAO
Position of magnetic origin             ...     0.000000     0.000000     0.000000

Properties with geometric perturbations:
SCF Hessian                             ...  NO
IR spectrum                             ...  NO
VCD spectrum                            ...  NO
X-ray spectroscopy properties:
SCF XES/XAS/RIXS spectra                ...  NO


-------------
DIPOLE MOMENT
-------------

Method             : SCF
Type of density    : Electron Density
Multiplicity       :   1
Irrep              :   0
Energy             :  -303.9797064749560604 Eh
Relativity type    : 
Basis              : AO
                                X                 Y                 Z
Electronic contribution:      0.052074691      -0.002530453      -0.042311686
Nuclear contribution   :     -0.712259321       0.326152192       0.949174129
                        -----------------------------------------
Total Dipole Moment    :     -0.660184630       0.323621739       0.906862442
                        -----------------------------------------
Magnitude (a.u.)       :      1.167464888
Magnitude (Debye)      :      2.967459918



--------------------
Rotational spectrum 
--------------------
 
Rotational constants in cm-1:             0.085260             0.045282             0.030271 
Rotational constants in MHz :          2556.036961          1357.515755           907.516054 

Dipole components along the rotational axes: 
x,y,z [a.u.] :     0.692635    -0.886531    -0.311918 
x,y,z [Debye]:     1.760538    -2.253384    -0.792833 

 

Dipole moment calculation done in   0.0 sec 

Maximum memory used throughout the entire PROP-calculation: 2.7 MB

--------------------------------
SUGGESTED CITATIONS FOR THIS RUN
--------------------------------

Below you find a list of papers that are relevant to this ORCA run
We neither can nor want to force you to cite these papers, but we appreciate if you do
You receive ORCA, which is the product of decades of hard work by many enthusiastic individuals, for free
The only thing we kindly ask in return is that you cite our papers,
We deeply appreciate it, if you show your appreciation for ORCA by not just citing the generic ORCA reference.

Please note that relegating all ORCA citations to the supporting information does *not* help us.
SI sections are not indexed - citations you put there will not count into any citation statistics
But we need these citations in order to attract the funding resources that allow us to do what we are doing

Therefore, if you are a happy ORCA user, please consider citing a few of the papers listed below in the main body of your paper

In addition to the list printed below, the program has created the file frag.bibtex that contains the list in bibtex format
You can import this file easily into all common literature databanks and citation aid programs


List of essential papers. We consider these as the minimum necessary citations

  1. Neese,F.
     Software update: the ORCA program system, version 5.0
     WIRES Comput. Molec. Sci., 2022 12(1)e1606
     doi.org/10.1002/wcms.1606

List of papers to cite with high priority. The work reported in these papers was absolutely
necessary for this run to complete.
Our perspective: the developers of density functionals and basis sets usually get cited in chemistry papers
Good! But without the algorithms to do something with them, the functionals or basis sets would not do anything.
Hence, in our opinion, the algorithm design and method developments papers are equally worthy of getting cited

  1. Neese,F.
     The SHARK Integral Generation and Digestion System
     J. Comp. Chem., 2022  1-16
     doi.org/10.1002/jcc.26942

List of suggested additional citations. These are papers that are important in the 'surrounding' of 
of this run, or papers that preceded the highly important papers. If you like your results we are grateful for a citation.

  1. Neese,F.
     The ORCA program system
     WIRES Comput. Molec. Sci., 2012 2(1)73-78
     doi.org/10.1002/wcms.81
  2. Neese,F.
     Software update: the ORCA program system, version 4.0
     WIRES Comput. Molec. Sci., 2018 8(1)1-6
     doi.org/10.1002/wcms.1327
  3. Neese,F.; Wennmohs,F.; Becker,U.; Riplinger,C.
     The ORCA quantum chemistry program package
     J. Chem. Phys., 2020 152 Art. No. L224108
     doi.org/10.1063/5.0004608

List of optional additional citations

  1. Neese,F.
     Approximate second-order SCF convergence for spin unrestricted wavefunctions
     Chem. Phys. Lett., 2000 325(1-3)93-98
     doi.org/10.1016/s0009-2614(00)00662-x

Timings for individual modules:

Sum of individual times          ...        3.148 sec (=   0.052 min)
Startup calculation              ...        0.571 sec (=   0.010 min)  18.1 %
SCF iterations                   ...        2.007 sec (=   0.033 min)  63.7 %
Property calculations            ...        0.063 sec (=   0.001 min)   2.0 %
SCF Gradient evaluation          ...        0.507 sec (=   0.008 min)  16.1 %
                             ****ORCA TERMINATED NORMALLY****
TOTAL RUN TIME: 0 days 0 hours 0 minutes 3 seconds 410 msec
