
                                 *****************
                                 * O   R   C   A *
                                 *****************

                                            #,                                       
                                            ###                                      
                                            ####                                     
                                            #####                                    
                                            ######                                   
                                           ########,                                 
                                     ,,################,,,,,                         
                               ,,#################################,,                 
                          ,,##########################################,,             
                       ,#########################################, ''#####,          
                    ,#############################################,,   '####,        
                  ,##################################################,,,,####,       
                ,###########''''           ''''###############################       
              ,#####''   ,,,,##########,,,,          '''####'''          '####       
            ,##' ,,,,###########################,,,                        '##       
           ' ,,###''''                  '''############,,,                           
         ,,##''                                '''############,,,,        ,,,,,,###''
      ,#''                                            '''#######################'''  
     '                                                          ''''####''''         
             ,#######,   #######,   ,#######,      ##                                
            ,#'     '#,  ##    ##  ,#'     '#,    #''#        ,####,   ,####,        
            ##       ##  ##   ,#'  ##            #'  '#       #'       #'  '#        
            ##       ##  #######   ##           ,######,      #####,   #    #        
            '#,     ,#'  ##    ##  '#,     ,#' ,#      #,     #,   #   #,  ,#        
             '#######'   ##     ##  '#######'  #'      '#     '####' # '####'        



                #########################################################
                #                        -***-                          #
                #          Department of theory and spectroscopy        #
                #                                                       #
                #                      Frank Neese                      #
                #                                                       #
                #     Directorship, Architecture, Infrastructure        #
                #                    SHARK, DRIVERS                     #
                #        Core code/Algorithms in most modules           #
                #                                                       #
                #        Max Planck Institute fuer Kohlenforschung      #
                #                Kaiser Wilhelm Platz 1                 #
                #                 D-45470 Muelheim/Ruhr                 #
                #                      Germany                          #
                #                                                       #
                #                  All rights reserved                  #
                #                        -***-                          #
                #########################################################


                         Program Version 6.0.1  -  RELEASE   -


 With contributions from (in alphabetic order):
[Max-Planck-Institut fuer Kohlenforschung]                               
  Daniel Aravena         : Magnetic Suceptibility                        
  Michael Atanasov       : Ab Initio Ligand Field Theory (pilot matlab implementation)
  Alexander A. Auer      : GIAO ZORA, VPT2 properties, NMR spectrum      
  Ute Becker             : All parallelization in ORCA, NUMFREQ, NUMCALC 
  Giovanni Bistoni       : ED, misc. LED, open-shell LED, HFLD           
  Martin Brehm           : Molecular dynamics                            
  Dmytro Bykov           : pre 5.0 version of the SCF Hessian            
  Marcos Casanova-Páez   : Triplet and SCS-CIS(D). UHF-(DLPNO)-IP/EA/STEOM-CCSD. UHF-CVS-IP/STEOM-CCSD   
  Vijay G. Chilkuri      : MRCI spin determinant printing, contributions to CSF-ICE 
  Pauline Colinet        : FMM embedding                                 
  Dipayan Datta          : RHF DLPNO-CCSD density                        
  Achintya Kumar Dutta   : EOM-CC, STEOM-CC                              
  Nicolas Foglia         : Exact transition moments, OPA infrastructure, MCD improvements    
  Dmitry Ganyushin       : Spin-Orbit,Spin-Spin,Magnetic field MRCI      
  Miquel Garcia-Rates    : C-PCM and meta-GGA Hessian, CCSD/C-PCM, Gaussian charge scheme 
  Tiago L. C. Gouveia    : GS-ROHF, GS-ROCIS                             
  Yang Guo               : DLPNO-NEVPT2, F12-NEVPT2, CIM, IAO-localization        
  Andreas Hansen         : Spin unrestricted coupled pair/coupled cluster methods 
  Ingolf Harden          : AUTO-CI MPn and infrastructure                
  Benjamin Helmich-Paris : MC-RPA, TRAH-(SCF,CASSCF), AVAS, COSX integrals, SCF dyn. polar. 
  Lee Huntington         : MR-EOM, pCC                                   
  Robert Izsak           : Overlap fitted RIJCOSX, COSX-SCS-MP3, EOM     
  Riya Kayal             : Wick's Theorem for AUTO-CI, AUTO-CI UHF-CCSDT 
  Emily Kempfer          : AUTO-CI, RHF CISDT and CCSDT                  
  Christian Kollmar      : KDIIS, OOCD, Brueckner-CCSD(T), CCSD density, CASPT2, CASPT2-K, improved NEVPT2 
  Axel Koslowski         : Symmetry handling                             
  Simone Kossmann        : meta-GGA functionals, TD-DFT gradient, OOMP2, (MP2 Hessian; deprecated post 5.0) 
  Lucas Lang             : DCDCAS                                        
  Marvin Lechner         : AUTO-CI (C++ implementation), FIC-MRCC        
  Spencer Leger          : CASSCF response                               
  Dagmar Lenk            : GEPOL surface, SMD, ORCA-2-JSON               
  Dimitrios Liakos       : Extrapolation schemes; Compound Job, initial MDCI parallelization 
  Dimitrios Manganas     : Further ROCIS development; embedding schemes. LFT, Crystal Embedding 
  Dimitrios Pantazis     : SARC Basis sets                               
  Anastasios Papadopoulos: AUTO-CI, single reference methods and gradients 
  Taras Petrenko         : pre 6.0 DFT Hessian and TD-DFT gradient, (ASA, deprecated), ECA, 1-Electron XAS/XES, NRVS 
  Peter Pinski           : DLPNO-MP2, DLPNO-MP2 Gradient                 
  Christoph Reimann      : Effective Core Potentials                     
  Marius Retegan         : Local ZFS, SOC                                
  Christoph Riplinger    : Optimizer, TS searches, QM/MM, DLPNO-CCSD(T), (RO)-DLPNO pert. Triples 
  Michael Roemelt        : Original ROCIS implementation                 
  Masaaki Saitow         : Open-shell DLPNO-CCSD energy and density      
  Barbara Sandhoefer     : DKH picture change effects                    
  Kantharuban Sivalingam : CASSCF convergence/infrastructure, NEVPT2 and variants, FIC-MRCI 
  Bernardo de Souza      : ESD, SOC TD-DFT                               
  Georgi L. Stoychev     : AutoAux, RI-MP2 NMR, DLPNO-MP2 response, X2C  
  Van Anh Tran           : RI-MP2 g-tensors                              
  Willem Van den Heuvel  : Paramagnetic NMR                              
  Zikuan Wang            : NOTCH, Electric field optimization            
  Frank Wennmohs         : Technical directorship and infrastructure     
  Hang Xu                : AUTO-CI-Response properties                   
                                                                         
[FACCTs GmbH]                                                            
  Markus Bursch, Miquel Garcia-Rates, Christoph Riplinger, Bernardo de Souza, Georgi L. Stoychev 
                                                                 
  APM, Basis sets (HGBS, AHGBS, def-TZVP (Ac-Lr), def2-XVPD (La-Lu)), CI-OPT, improved COSX, DLPNO-Multilevel,           
  DOCKER, DRACO, updates on ESD, GOAT, IRC, LR-CPCM, MBIS, meta-GGA TD-DFT gradient, ML-optimized integration grids, 
  MM, NACMEs, nearIR, NEB, NEB-TS, NL-DFT gradient (VV10), 2- and 3-layer-ONIOM, interface openCOSMO-RS, QMMM,   
  Crystal-QMMM, SF, symmetry and pop. for TD-DFT, r2SCAN hybrids, SOLVATOR                                   
                                                                         
[Other institutions]                                                     
  V. Asgeirsson          : NEB                                           
  Christoph Bannwarth    : sTDA-DFT, sTD-DFT, PBEh-3c, B97-3c, D3        
  Sebastian Ehlert       : rSCAN, r2SCAN, r2SCAN-3c, D4, dhf basis sets  
  Marvin Friede          : D4 for Fr, Ra, Ac-Lr                          
  Lars Goerigk           : TD-DFT with DH, B97 family of functionals     
  Stefan Grimme          : VdW corrections, initial TS optimization, DFT functionals, gCP, sTDA/sTD-DF 
  Waldemar Hujo          : DFT-NL                                        
  H. Jonsson             : NEB                                           
  Holger Kruse           : gCP                                           
  Marcel Mueller         : wB97X-3c, vDZP basis set                      
  Hagen Neugebauer       : wr2SCAN                                       
  Tobias Risthaus        : range-separated hybrid DFT                    
  Lukas Wittmann         : regularized MP2, r2SCAN double-hybrids, wr2SCAN        
                                                                         
We gratefully acknowledge several colleagues who have allowed us to      
interface, adapt or use parts of their codes:                            
  Ed Valeev, F. Pavosevic, A. Kumar             : LibInt (2-el integral package), F12 methods 
  Garnet Chan, S. Sharma, J. Yang, R. Olivares  : DMRG                   
  Ulf Ekstrom                                   : XCFun DFT Library      
  Mihaly Kallay                                 : mrcc  (arbitrary order and MRCC methods)
  Frank Weinhold                                : gennbo (NPA and NBO analysis)           
  Simon Mueller                                 : openCOSMO-RS                            
  Christopher J. Cramer and Donald G. Truhlar   : smd solvation model                     
  S Lehtola, MJT Oliveira, MAL Marques          : LibXC Library                           
  Liviu Ungur et al                             : ANISO software                          


 Your calculation uses the libint2 library for the computation of 2-el integrals
 For citations please refer to: http://libint.valeyev.net

 Your ORCA version has been built with support for libXC version: 6.2.2
 For citations please refer to: https://libxc.gitlab.io

 This ORCA versions uses:
   CBLAS   interface :  Fast vector & matrix operations
   LAPACKE interface :  Fast linear algebra routines
   SCALAPACK package :  Parallel linear algebra routines
   Shared memory     :  Shared parallel matrices
   BLAS/LAPACK       :  OpenBLAS 0.3.27  USE64BITINT DYNAMIC_ARCH NO_AFFINITY SkylakeX SINGLE_THREADED
        Core in use  :  SkylakeX
   Copyright (c) 2011-2014, The OpenBLAS Project


================================================================================

----- Orbital basis set information -----
Your calculation utilizes the basis: 6-31G*
   H-He, Li-Ne : W. J. Hehre, R. Ditchfield and J.A. Pople, J. Chem. Phys. 56, 2257 (1972).
                 Note: He and Ne are unpublished basis sets taken from the Gaussian program.
                 Note: Li and B from J. D. Dill and J. A. Pople, J. Chem. Phys. 62, 2921 (1975).
   Na - Ar     : M. M. Francl, W. J. Pietro, W. J. Hehre, J. S. Binkley, M. S. Gordon, 
                 D. J. DeFrees and J. A. Pople, J. Chem. Phys. 77, 3654 (1982).
   K - Zn      : V. A. Rassolov, J. A. Pople, M. A. Ratner, and T. L. Windus, J. Chem. Phys. 109, 1223 (1998).

================================================================================
                                        WARNINGS
                       Please study these warnings very carefully!
================================================================================


================================================================================
                                       INPUT FILE
================================================================================
NAME = frag.inp
|  1> !HF 6-31G* EnGrad
|  2> %pal nprocs 1 end
|  3> *xyz 0 1
|  4> O 20.35232000 49.63574000 40.01023000
|  5> H 20.79050000 48.92392000 40.26012000
|  6> H 19.54326000 49.49202000 40.30334000
|  7> O 21.78987000 47.25010000 37.48256000
|  8> H 21.67133000 47.22017000 38.34638000
|  9> H 21.14108000 47.76263000 37.20411000
| 10> O 22.25294000 44.28778000 39.87163000
| 11> H 22.68414000 43.83080000 40.47691000
| 12> H 22.81575000 44.91633000 39.64956000
| 13> O 21.99613000 48.36911000 43.54199000
| 14> H 21.97702000 49.24128000 43.53308000
| 15> H 21.46413000 48.14557000 42.88766000
| 16> *
| 17> 
| 18>                          ****END OF INPUT****
================================================================================

                     *******************************
                     * Energy+Gradient Calculation *
                     *******************************

---------------------------------
CARTESIAN COORDINATES (ANGSTROEM)
---------------------------------
  O     20.352320   49.635740   40.010230
  H     20.790500   48.923920   40.260120
  H     19.543260   49.492020   40.303340
  O     21.789870   47.250100   37.482560
  H     21.671330   47.220170   38.346380
  H     21.141080   47.762630   37.204110
  O     22.252940   44.287780   39.871630
  H     22.684140   43.830800   40.476910
  H     22.815750   44.916330   39.649560
  O     21.996130   48.369110   43.541990
  H     21.977020   49.241280   43.533080
  H     21.464130   48.145570   42.887660

----------------------------
CARTESIAN COORDINATES (A.U.)
----------------------------
  NO LB      ZA    FRAG     MASS         X           Y           Z
   0 O     8.0000    0    15.999   38.460311   93.797955   75.608377
   1 H     1.0000    0     1.008   39.288351   92.452810   76.080601
   2 H     1.0000    0     1.008   36.931409   93.526364   76.162275
   3 O     8.0000    0    15.999   41.176887   89.289749   70.831773
   4 H     1.0000    0     1.008   40.952879   89.233189   72.464156
   5 H     1.0000    0     1.008   39.950851   90.258290   70.305579
   6 O     8.0000    0    15.999   42.051962   83.691775   75.346461
   7 H     1.0000    0     1.008   42.866812   82.828208   76.490275
   8 H     1.0000    0     1.008   43.115519   84.879563   74.926810
   9 O     8.0000    0    15.999   41.566662   91.404371   82.282436
  10 H     1.0000    0     1.008   41.530549   93.052534   82.265599
  11 H     1.0000    0     1.008   40.561327   90.981942   81.045932

--------------------------------
INTERNAL COORDINATES (ANGSTROEM)
--------------------------------
 O      0   0   0     0.000000000000     0.00000000     0.00000000
 H      1   0   0     0.872430190273     0.00000000     0.00000000
 H      1   2   0     0.872437386922   103.59919813     0.00000000
 O      2   1   3     3.393413229022   108.41619438   115.19435551
 H      4   2   1     0.872429096775    33.53678511   194.84682685
 H      4   2   1     0.872439033687    75.66802933   340.40737457
 O      5   4   2     3.356124083925   117.15578849   176.14439446
 H      7   5   4     0.872426523439   149.16283161   122.62062527
 H      7   5   4     0.872436406565    50.70030800    83.72012381
 O      2   1   3     3.540060526305   124.36490474   281.07896779
 H     10   2   1     0.872424832923    80.00248129   334.15276262
 H     10   2   1     0.872434456277    30.36512997   114.79492195

---------------------------
INTERNAL COORDINATES (A.U.)
---------------------------
 O      0   0   0     0.000000000000     0.00000000     0.00000000
 H      1   0   0     1.648654130581     0.00000000     0.00000000
 H      1   2   0     1.648667730277   103.59919813     0.00000000
 O      2   1   3     6.412621662077   108.41619438   115.19435551
 H      4   2   1     1.648652064169    33.53678511   194.84682685
 H      4   2   1     1.648670842211    75.66802933   340.40737457
 O      5   4   2     6.342155390075   117.15578849   176.14439446
 H      7   5   4     1.648647201269   149.16283161   122.62062527
 H      7   5   4     1.648665877670    50.70030800    83.72012381
 O      2   1   3     6.689744892221   124.36490474   281.07896779
 H     10   2   1     1.648644006656    80.00248129   334.15276262
 H     10   2   1     1.648662192161    30.36512997   114.79492195

---------------------
BASIS SET INFORMATION
---------------------
There are 2 groups of distinct atoms

 Group   1 Type O   : 10s4p1d contracted to 3s2p1d pattern {631/31/1}
 Group   2 Type H   : 4s contracted to 2s pattern {31}

Atom   0O    basis set group =>   1
Atom   1H    basis set group =>   2
Atom   2H    basis set group =>   2
Atom   3O    basis set group =>   1
Atom   4H    basis set group =>   2
Atom   5H    basis set group =>   2
Atom   6O    basis set group =>   1
Atom   7H    basis set group =>   2
Atom   8H    basis set group =>   2
Atom   9O    basis set group =>   1
Atom  10H    basis set group =>   2
Atom  11H    basis set group =>   2
------------------------------------------------------------------------------
                             ORCA STARTUP CALCULATIONS
------------------------------------------------------------------------------
------------------------------------------------------------------------------
                   ___                                                        
                  /   \      - P O W E R E D   B Y -                         
                 /     \                                                     
                 |  |  |   _    _      __       _____    __    __             
                 |  |  |  | |  | |    /  \     |  _  \  |  |  /  |          
                  \  \/   | |  | |   /    \    | | | |  |  | /  /          
                 / \  \   | |__| |  /  /\  \   | |_| |  |  |/  /          
                |  |  |   |  __  | /  /__\  \  |    /   |      \           
                |  |  |   | |  | | |   __   |  |    \   |  |\   \          
                \     /   | |  | | |  |  |  |  | |\  \  |  | \   \       
                 \___/    |_|  |_| |__|  |__|  |_| \__\ |__|  \__/        
                                                                              
                      - O R C A' S   B I G   F R I E N D -                    
                                      &                                       
                       - I N T E G R A L  F E E D E R -                       
                                                                              
 v1 FN, 2020, v2 2021, v3 2022-2024                                           
------------------------------------------------------------------------------


----------------------
SHARK INTEGRAL PACKAGE
----------------------

Number of atoms                             ...     12
Number of basis functions                   ...     72
Number of shells                            ...     40
Maximum angular momentum                    ...      2
Integral batch strategy                     ... SHARK/LIBINT Hybrid
RI-J (if used) integral strategy            ... SPLIT-RIJ (Revised 2003 algorithm where possible)
Printlevel                                  ...      1
Contraction scheme used                     ... SEGMENTED contraction
Prescreening option                         ... SCHWARTZ
   Thresh                                   ... 2.500e-11
   Tcut                                     ... 2.500e-12
   Tpresel                                  ... 2.500e-12 
Coulomb Range Separation                    ... NOT USED
Exchange Range Separation                   ... NOT USED
Multipole approximations                    ... NOT USED
Finite Nucleus Model                        ... NOT USED
CABS basis                                  ... NOT available
Auxiliary Coulomb fitting basis             ... NOT available
Auxiliary J/K fitting basis                 ... NOT available
Auxiliary Correlation fitting basis         ... NOT available
Auxiliary 'external' fitting basis          ... NOT available

Checking pre-screening integrals            ... done (  0.0 sec) Dimension = 40
Check shell pair data                       ... done (  0.0 sec)
Shell pair information
Shell pair cut-off parameter TPreSel        ...   2.5e-12
Total number of shell pairs                 ...       820
Shell pairs after pre-screening             ...       658
Total number of primitive shell pairs       ...      4386
Primitive shell pairs kept                  ...      2193
          la=0 lb=0:    331 shell pairs
          la=1 lb=0:    180 shell pairs
          la=1 lb=1:     32 shell pairs
          la=2 lb=0:     82 shell pairs
          la=2 lb=1:     26 shell pairs
          la=2 lb=2:      7 shell pairs

Calculating one electron integrals          ... done (  0.0 sec)
Calculating Nuclear repulsion               ... done (  0.0 sec) ENN=    109.786180909516 Eh

Diagonalization of the overlap matrix:
Smallest eigenvalue                        ... 4.057e-02
Time for diagonalization                   ...    0.001 sec
Threshold for overlap eigenvalues          ... 1.000e-07
Number of eigenvalues below threshold      ... 0
Time for construction of square roots      ...    0.003 sec
Total time needed                          ...    0.006 sec

-------------------
DFT GRID GENERATION
-------------------

General Integration Accuracy     IntAcc      ... 4.388
Radial Grid Type                 RadialGrid  ... OptM3 with GC (2021)
Angular Grid (max. ang.)         AngularGrid ... 4 (Lebedev-302)
Angular grid pruning method      GridPruning ... 4 (adaptive)
Weight generation scheme         WeightScheme... mBecke (2022)
Basis function cutoff            BFCut       ... 1.0000e-11
Integration weight cutoff        WCut        ... 1.0000e-14
Partially contracted basis set               ... off
Rotationally invariant grid construction     ... off
Angular grids for H and He will be reduced by one unit

Total number of grid points                  ...    50875
Total number of batches                      ...      801
Average number of points per batch           ...       63
Average number of grid points per atom       ...     4240
Initializing property integral containers    ... done (  0.0 sec)

SHARK setup successfully completed in   0.4 seconds

Maximum memory used throughout the entire STARTUP-calculation: 17.2 MB
-------------------------------------------------------------------------------
                                 ORCA GUESS
                   Start orbitals & Density for SCF / CASSCF
-------------------------------------------------------------------------------

------------
SCF SETTINGS
------------
Hamiltonian:
 Ab initio Hamiltonian  Method          .... Hartree-Fock(GTOs)


General Settings:
 Integral files         IntName         .... frag
 Hartree-Fock type      HFTyp           .... RHF
 Total Charge           Charge          ....    0
 Multiplicity           Mult            ....    1
 Number of Electrons    NEL             ....   40
 Basis Dimension        Dim             ....   72
 Nuclear Repulsion      ENuc            ....    109.7861809095 Eh

Convergence Acceleration:
 AO-DIIS                CNVDIIS         .... on
   Start iteration      DIISMaxIt       ....    12
   Startup error        DIISStart       ....  0.200000
   # of expansion vecs  DIISMaxEq       ....     5
   Bias factor          DIISBfac        ....   1.050
   Max. coefficient     DIISMaxC        ....  10.000
 MO-DIIS                CNVKDIIS        .... off
 Trust-Rad. Augm. Hess. CNVTRAH         .... auto
   Auto Start mean grad. ratio tolernc. ....  1.125000
   Auto Start start iteration           ....    50
   Auto Start num. interpolation iter.  ....    10
   Max. Number of Micro iterations      ....    24
   Max. Number of Macro iterations      .... Maxiter - #DIIS iter
   Number of Davidson start vectors     ....     2
   Converg. threshold    (grad. norm)   ....   1.000e-05
   Grad. Scal. Fac. for Micro threshold ....   0.100
   Minimum threshold for Micro iter.    ....   1.000e-02
   NR start threshold (gradient norm)   ....   1.000e-04
   Initial trust radius                 ....   0.400
   Minimum AH scaling param. (alpha)    ....   1.000
   Maximum AH scaling param. (alpha)    .... 1000.000
   Quad. conv. algorithm                .... NR
   White noise on init. David. guess    .... on
   Maximum white noise                  ....   0.010
   Pseudo random numbers                .... off
   Inactive MOs                         .... canonical
   Orbital update algorithm             .... Taylor
   Preconditioner                       .... Diag
   Full preconditioner red. dimension   ....   250
 SOSCF                  CNVSOSCF        .... on
   Start iteration      SOSCFMaxIt      ....   150
   Startup grad/error   SOSCFStart      ....  0.003300
   Hessian update       SOSCFHessUp     .... L-BFGS
 Level Shifting         CNVShift        .... on
   Level shift para.    LevelShift      ....    0.2500
   Turn off err/grad.   ShiftErr        ....    0.0010
 Zerner damping         CNVZerner       .... off
 Static damping         CNVDamp         .... on
   Fraction old density DampFac         ....    0.7000
   Max. Damping (<1)    DampMax         ....    0.9800
   Min. Damping (>=0)   DampMin         ....    0.0000
   Turn off err/grad.   DampErr         ....    0.1000

SCF Procedure:
 Maximum # iterations   MaxIter         ....   125
 SCF integral mode      SCFMode         .... Direct
   Integral package                     .... SHARK and LIBINT hybrid scheme
 Reset frequency        DirectResetFreq ....    20
 Integral Threshold     Thresh          ....  2.500e-11 Eh
 Primitive CutOff       TCut            ....  2.500e-12 Eh

Convergence Tolerance:
 Convergence Check Mode ConvCheckMode   .... Total+1el-Energy
 Convergence forced     ConvForced      .... 0
 Energy Change          TolE            ....  1.000e-08 Eh
 1-El. energy change                    ....  1.000e-05 Eh
 Orbital Gradient       TolG            ....  1.000e-05
 Orbital Rotation angle TolX            ....  1.000e-05
 DIIS Error             TolErr          ....  5.000e-07

------------------------------
INITIAL GUESS: MODEL POTENTIAL
------------------------------
Loading Hartree-Fock densities                     ... done
Calculating cut-offs                               ... done
Initializing the effective Hamiltonian             ... done
Setting up the integral package (SHARK)            ... done
Starting the Coulomb interaction                   ... done (   0.0 sec)
Making the grid                                    ... done (   0.1 sec)
Mapping shells                                     ... done
Starting the XC term evaluation                    ... done (   0.0 sec)
Transforming the Hamiltonian                       ... done (   0.0 sec)
Diagonalizing the Hamiltonian                      ... done (   0.0 sec)
Back transforming the eigenvectors                 ... done (   0.0 sec)
Now organizing SCF variables                       ... done
                      ------------------
                      INITIAL GUESS DONE (   0.1 sec)
                      ------------------
             **** ENERGY FILE WAS UPDATED (frag.en.tmp) ****
Finished Guess after   0.2 sec
Maximum memory used throughout the entire GUESS-calculation: 7.2 MB

-------------------------------------------------------------------------------------------
                                      ORCA LEAN-SCF
                              memory conserving SCF solver
-------------------------------------------------------------------------------------------

----------------------------------------D-I-I-S--------------------------------------------
Iteration    Energy (Eh)           Delta-E    RMSDP     MaxDP     DIISErr   Damp  Time(sec)
-------------------------------------------------------------------------------------------
               ***  Starting incremental Fock matrix formation  ***
    1    -303.5598353951909871     0.00e+00  6.28e-03  7.28e-02  3.32e-01  0.700   0.1
    2    -303.7229864583804897    -1.63e-01  4.27e-03  4.98e-02  2.02e-01  0.700   0.1
                               ***Turning on AO-DIIS***
    3    -303.8110985606483609    -8.81e-02  1.67e-03  2.17e-02  1.13e-01  0.700   0.1
    4    -303.8643102944702719    -5.32e-02  1.01e-03  1.39e-02  7.66e-02  0.700   0.1
    5    -303.8994832557627319    -3.52e-02  2.34e-03  3.29e-02  5.45e-02  0.000   0.1
    6    -303.9779446795432136    -7.85e-02  1.66e-04  1.81e-03  3.51e-03  0.000   0.1
                              *** Initializing SOSCF ***
---------------------------------------S-O-S-C-F--------------------------------------
Iteration    Energy (Eh)           Delta-E    RMSDP     MaxDP     MaxGrad    Time(sec)
--------------------------------------------------------------------------------------
    7    -303.9780086343500898    -6.40e-05  1.02e-04  8.06e-04  1.18e-03     0.1
               *** Restarting incremental Fock matrix formation ***
    8    -303.9780209382406611    -1.23e-05  4.67e-05  5.01e-04  2.22e-04     0.1
    9    -303.9780222447802771    -1.31e-06  2.94e-05  2.13e-04  9.74e-05     0.1
   10    -303.9780224881689037    -2.43e-07  3.92e-06  4.46e-05  3.90e-05     0.1
   11    -303.9780225019109707    -1.37e-08  8.90e-07  9.75e-06  5.88e-06     0.1
   12    -303.9780225023917524    -4.81e-10  1.78e-07  1.75e-06  9.84e-07     0.1
                 **** Energy Check signals convergence ****

               *****************************************************
               *                     SUCCESS                       *
               *           SCF CONVERGED AFTER  12 CYCLES          *
               *****************************************************

             **** ENERGY FILE WAS UPDATED (frag.en.tmp) ****

----------------
TOTAL SCF ENERGY
----------------

Total Energy       :       -303.97802250239175 Eh           -8271.66252 eV

Components:
Nuclear Repulsion  :        109.78618090951556 Eh            2987.43386 eV
Electronic Energy  :       -413.76420341190732 Eh          -11259.09638 eV
One Electron Energy:       -636.84002984732933 Eh          -17329.29822 eV
Two Electron Energy:        223.07582643542202 Eh            6070.20184 eV

Virial components:
Potential Energy   :       -609.49910224864607 Eh          -16585.31375 eV
Kinetic Energy     :        305.52107974625437 Eh            8313.65124 eV
Virial Ratio       :          1.99494942461861

---------------
SCF CONVERGENCE
---------------

  Last Energy change         ...    4.8078e-10  Tolerance :   1.0000e-08
  Last MAX-Density change    ...    1.7519e-06  Tolerance :   1.0000e-07
  Last RMS-Density change    ...    1.7807e-07  Tolerance :   5.0000e-09
  Last DIIS Error            ...    1.1792e-03  Tolerance :   5.0000e-07
  Last Orbital Gradient      ...    9.8363e-07  Tolerance :   1.0000e-05
  Last Orbital Rotation      ...    1.0568e-06  Tolerance :   1.0000e-05


----------------
ORBITAL ENERGIES
----------------

  NO   OCC          E(Eh)            E(eV) 
   0   2.0000     -20.566603      -559.6457 
   1   2.0000     -20.550395      -559.2047 
   2   2.0000     -20.542421      -558.9877 
   3   2.0000     -20.540070      -558.9237 
   4   2.0000      -1.419893       -38.6372 
   5   2.0000      -1.403949       -38.2034 
   6   2.0000      -1.395942       -37.9855 
   7   2.0000      -1.393451       -37.9177 
   8   2.0000      -0.782306       -21.2876 
   9   2.0000      -0.766562       -20.8592 
  10   2.0000      -0.759868       -20.6771 
  11   2.0000      -0.755242       -20.5512 
  12   2.0000      -0.615915       -16.7599 
  13   2.0000      -0.600637       -16.3442 
  14   2.0000      -0.593456       -16.1487 
  15   2.0000      -0.590947       -16.0805 
  16   2.0000      -0.532936       -14.5019 
  17   2.0000      -0.517224       -14.0744 
  18   2.0000      -0.509782       -13.8719 
  19   2.0000      -0.506590       -13.7850 
  20   0.0000       0.149899         4.0790 
  21   0.0000       0.208316         5.6686 
  22   0.0000       0.241813         6.5801 
  23   0.0000       0.263648         7.1742 
  24   0.0000       0.288541         7.8516 
  25   0.0000       0.313388         8.5277 
  26   0.0000       0.337420         9.1817 
  27   0.0000       0.420758        11.4494 
  28   0.0000       1.028275        27.9808 
  29   0.0000       1.031841        28.0778 
  30   0.0000       1.043406        28.3925 
*Only the first 10 virtual orbitals were printed.

                    ********************************
                    * MULLIKEN POPULATION ANALYSIS *
                    ********************************

-----------------------
MULLIKEN ATOMIC CHARGES
-----------------------
   0 O :   -0.887118
   1 H :    0.440670
   2 H :    0.448079
   3 O :   -0.889132
   4 H :    0.439005
   5 H :    0.448995
   6 O :   -0.891866
   7 H :    0.446005
   8 H :    0.445892
   9 O :   -0.885631
  10 H :    0.447763
  11 H :    0.437338
Sum of atomic charges:   -0.0000000

--------------------------------
MULLIKEN REDUCED ORBITAL CHARGES
--------------------------------
  0 O s       :     3.850339  s :     3.850339
      pz      :     1.910068  p :     5.002882
      px      :     1.419067
      py      :     1.673747
      dz2     :     0.003599  d :     0.033897
      dxz     :     0.006304
      dyz     :     0.005847
      dx2y2   :     0.009891
      dxy     :     0.008256

  1 H s       :     0.559330  s :     0.559330

  2 H s       :     0.551921  s :     0.551921

  3 O s       :     3.847677  s :     3.847677
      pz      :     1.440441  p :     5.008059
      px      :     1.736800
      py      :     1.830818
      dz2     :     0.015280  d :     0.033396
      dxz     :     0.004301
      dyz     :     0.001235
      dx2y2   :     0.002624
      dxy     :     0.009956

  4 H s       :     0.560995  s :     0.560995

  5 H s       :     0.551005  s :     0.551005

  6 O s       :     3.847052  s :     3.847052
      pz      :     1.718281  p :     5.011381
      px      :     1.712799
      py      :     1.580301
      dz2     :     0.004639  d :     0.033433
      dxz     :     0.009497
      dyz     :     0.002842
      dx2y2   :     0.001734
      dxy     :     0.014721

  7 H s       :     0.553995  s :     0.553995

  8 H s       :     0.554108  s :     0.554108

  9 O s       :     3.847393  s :     3.847393
      pz      :     1.723517  p :     5.004590
      px      :     1.816960
      py      :     1.464114
      dz2     :     0.007351  d :     0.033647
      dxz     :     0.010527
      dyz     :     0.001784
      dx2y2   :     0.012309
      dxy     :     0.001676

 10 H s       :     0.552237  s :     0.552237

 11 H s       :     0.562662  s :     0.562662



                     *******************************
                     * LOEWDIN POPULATION ANALYSIS *
                     *******************************

----------------------
LOEWDIN ATOMIC CHARGES
----------------------
   0 O :   -0.622222
   1 H :    0.307471
   2 H :    0.315945
   3 O :   -0.623900
   4 H :    0.306927
   5 H :    0.316180
   6 O :   -0.627444
   7 H :    0.314407
   8 H :    0.313028
   9 O :   -0.623446
  10 H :    0.315472
  11 H :    0.307583

-------------------------------
LOEWDIN REDUCED ORBITAL CHARGES
-------------------------------
  0 O s       :     3.556147  s :     3.556147
      pz      :     1.914659  p :     5.023294
      px      :     1.423378
      py      :     1.685257
      dz2     :     0.004263  d :     0.042782
      dxz     :     0.007957
      dyz     :     0.006297
      dx2y2   :     0.013137
      dxy     :     0.011128

  1 H s       :     0.692529  s :     0.692529

  2 H s       :     0.684055  s :     0.684055

  3 O s       :     3.554243  s :     3.554243
      pz      :     1.449458  p :     5.027440
      px      :     1.744077
      py      :     1.833906
      dz2     :     0.020405  d :     0.042216
      dxz     :     0.005466
      dyz     :     0.001686
      dx2y2   :     0.002715
      dxy     :     0.011944

  4 H s       :     0.693073  s :     0.693073

  5 H s       :     0.683820  s :     0.683820

  6 O s       :     3.555308  s :     3.555308
      pz      :     1.721304  p :     5.029972
      px      :     1.726471
      py      :     1.582197
      dz2     :     0.005638  d :     0.042164
      dxz     :     0.011503
      dyz     :     0.004370
      dx2y2   :     0.001802
      dxy     :     0.018850

  7 H s       :     0.685593  s :     0.685593

  8 H s       :     0.686972  s :     0.686972

  9 O s       :     3.555662  s :     3.555662
      pz      :     1.731288  p :     5.025222
      px      :     1.822785
      py      :     1.471149
      dz2     :     0.009221  d :     0.042561
      dxz     :     0.012907
      dyz     :     0.002349
      dx2y2   :     0.016019
      dxy     :     0.002065

 10 H s       :     0.684528  s :     0.684528

 11 H s       :     0.692417  s :     0.692417



                      *****************************
                      * MAYER POPULATION ANALYSIS *
                      *****************************

  NA   - Mulliken gross atomic population
  ZA   - Total nuclear charge
  QA   - Mulliken gross atomic charge
  VA   - Mayer's total valence
  BVA  - Mayer's bonded valence
  FA   - Mayer's free valence

  ATOM       NA         ZA         QA         VA         BVA        FA
  0 O      8.8871     8.0000    -0.8871     1.5548     1.5548    -0.0000
  1 H      0.5593     1.0000     0.4407     0.7705     0.7705    -0.0000
  2 H      0.5519     1.0000     0.4481     0.7643     0.7643     0.0000
  3 O      8.8891     8.0000    -0.8891     1.5517     1.5517    -0.0000
  4 H      0.5610     1.0000     0.4390     0.7722     0.7722    -0.0000
  5 H      0.5510     1.0000     0.4490     0.7648     0.7648    -0.0000
  6 O      8.8919     8.0000    -0.8919     1.5502     1.5502    -0.0000
  7 H      0.5540     1.0000     0.4460     0.7660     0.7660     0.0000
  8 H      0.5541     1.0000     0.4459     0.7656     0.7656    -0.0000
  9 O      8.8856     8.0000    -0.8856     1.5545     1.5545     0.0000
 10 H      0.5522     1.0000     0.4478     0.7644     0.7644     0.0000
 11 H      0.5627     1.0000     0.4373     0.7730     0.7730     0.0000

  Mayer bond orders larger than 0.100000
B(  0-O ,  1-H ) :   0.7734 B(  0-O ,  2-H ) :   0.7739 B(  3-O ,  4-H ) :   0.7754 
B(  3-O ,  5-H ) :   0.7731 B(  6-O ,  7-H ) :   0.7754 B(  6-O ,  8-H ) :   0.7734 
B(  9-O , 10-H ) :   0.7740 B(  9-O , 11-H ) :   0.7789 

-------
TIMINGS
-------

Total SCF time: 0 days 0 hours 0 min 1 sec 

Total time                  ....       1.116 sec
Sum of individual times     ....       1.068 sec  ( 95.7%)

SCF preparation             ....       0.046 sec  (  4.1%)
Fock matrix formation       ....       0.902 sec  ( 80.8%)
  Startup                   ....       0.011 sec  (  1.2% of F)
  Coulomb+Exchange Fock     ....       0.861 sec  ( 95.4% of F)
Diagonalization             ....       0.000 sec  (  0.0%)
Density matrix formation    ....       0.034 sec  (  3.0%)
Total Energy calculation    ....       0.007 sec  (  0.7%)
Population analysis         ....       0.010 sec  (  0.9%)
Orbital Transformation      ....       0.007 sec  (  0.6%)
Orbital Orthonormalization  ....       0.000 sec  (  0.0%)
DIIS solution               ....       0.042 sec  (  3.7%)
SOSCF solution              ....       0.021 sec  (  1.9%)
Finished LeanSCF after   1.1 sec

Maximum memory used throughout the entire LEANSCF-calculation: 8.1 MB

-------------------------   --------------------
FINAL SINGLE POINT ENERGY      -303.978022502392
-------------------------   --------------------

------------------------------------------------------------------------------
                         ORCA SCF GRADIENT CALCULATION
------------------------------------------------------------------------------

Nuc. rep. gradient        (SHARK) ... done (  0.0 sec)
HCore & Overlap gradient  (SHARK) ... done (  0.0 sec)
Two-electron gradient     (SHARK) ... done (  0.3 sec)

------------------
CARTESIAN GRADIENT
------------------

   1   O   :   -0.044081013   -0.096233365    0.061898049
   2   H   :   -0.064668573    0.087809530   -0.028284930
   3   H   :    0.108682768    0.009757528   -0.033797559
   4   O   :   -0.090188696    0.056388581    0.065993137
   5   H   :    0.009332740    0.009328436   -0.110741352
   6   H   :    0.081058386   -0.066164271    0.044660022
   7   O   :    0.116057984    0.017615686    0.042798178
   8   H   :   -0.048551720    0.065181673   -0.079135555
   9   H   :   -0.067745342   -0.083241823    0.036614401
  10   O   :   -0.063212128    0.075656577   -0.074832576
  11   H   :   -0.003801057   -0.113669636   -0.006477052
  12   H   :    0.067116650    0.037571086    0.081305237

Difference to translation invariance:
           :   -0.0000000000   -0.0000000001   -0.0000000001

Difference to rotation invariance:
           :   -0.0000000941   -0.0000001274    0.0000000646

Norm of the Cartesian gradient     ...    0.4049558145
RMS gradient                       ...    0.0674926357
MAX gradient                       ...    0.1160579836

-------
TIMINGS
-------

Total SCF gradient time     ....        0.371 sec

Densities                   ....       0.000 sec  (  0.0%)
One electron gradient       ....       0.030 sec  (  8.1%)
Two electron gradient       ....       0.341 sec  ( 91.8%)

Maximum memory used throughout the entire SCFGRAD-calculation: 13.9 MB

------------------------------------------------------------------------------
                              ORCA PROPERTY CALCULATIONS
------------------------------------------------------------------------------

GBWName                                 ... frag.gbw
Number of atoms                         ...     12
Number of basis functions               ...     72
Max core memory                         ...   1024 MB

Electric properties:
Dipole moment                           ... YES
Quadrupole moment                       ...  NO
Static polarizability (Dipole/Dipole)   ...  NO
Static polarizability (Dipole/Quad.)    ...  NO
Static polarizability (Quad./Quad.)     ...  NO
Static polarizability (Velocity)        ...  NO

Atomic electric properties:
Dipole moment                           ...  NO
Quadrupole moment                       ...  NO
Static polarizability                   ...  NO

Choice of electric origin               ... Center of mass
Position of electric origin             ...    40.795576    89.557786    76.039687

General magnetic properties:
Magnetizability                         ...  NO

EPR properties:
g-Tensor (aka g-matrix)                 ...  NO
Zero-Field splitting spin-orbit         ...  NO
Zero-field splitting spin-spin          ...  NO
Hyperfine couplings                     ...  NO (   0 nuclei)
Quadrupole couplings                    ...  NO (   0 nuclei)
Contact density                         ...  NO (   0 nuclei)

NMR properties:
Chemical shifts                         ...  NO (   0 nuclei)
Spin-rotation constants                 ...  NO (   0 nuclei)
Spin-spin couplings                     ...  NO (   0 nuclei,    0 pairs)

Choice of magnetic origin               ... GIAO
Position of magnetic origin             ...     0.000000     0.000000     0.000000

Properties with geometric perturbations:
SCF Hessian                             ...  NO
IR spectrum                             ...  NO
VCD spectrum                            ...  NO
X-ray spectroscopy properties:
SCF XES/XAS/RIXS spectra                ...  NO


-------------
DIPOLE MOMENT
-------------

Method             : SCF
Type of density    : Electron Density
Multiplicity       :   1
Irrep              :   0
Energy             :  -303.9780225023917524 Eh
Relativity type    : 
Basis              : AO
                                X                 Y                 Z
Electronic contribution:      0.023001601       0.006518639      -0.051353038
Nuclear contribution   :     -0.578748674       0.372281618       0.706124823
                        -----------------------------------------
Total Dipole Moment    :     -0.555747073       0.378800257       0.654771784
                        -----------------------------------------
Magnitude (a.u.)       :      0.938653575
Magnitude (Debye)      :      2.385867780



--------------------
Rotational spectrum 
--------------------
 
Rotational constants in cm-1:             0.063937             0.041977             0.026271 
Rotational constants in MHz :          1916.793540          1258.437362           787.574963 

Dipole components along the rotational axes: 
x,y,z [a.u.] :     0.807359     0.041622     0.476979 
x,y,z [Debye]:     2.052144     0.105796     1.212385 

 

Dipole moment calculation done in   0.0 sec 

Maximum memory used throughout the entire PROP-calculation: 2.6 MB

--------------------------------
SUGGESTED CITATIONS FOR THIS RUN
--------------------------------

Below you find a list of papers that are relevant to this ORCA run
We neither can nor want to force you to cite these papers, but we appreciate if you do
You receive ORCA, which is the product of decades of hard work by many enthusiastic individuals, for free
The only thing we kindly ask in return is that you cite our papers,
We deeply appreciate it, if you show your appreciation for ORCA by not just citing the generic ORCA reference.

Please note that relegating all ORCA citations to the supporting information does *not* help us.
SI sections are not indexed - citations you put there will not count into any citation statistics
But we need these citations in order to attract the funding resources that allow us to do what we are doing

Therefore, if you are a happy ORCA user, please consider citing a few of the papers listed below in the main body of your paper

In addition to the list printed below, the program has created the file frag.bibtex that contains the list in bibtex format
You can import this file easily into all common literature databanks and citation aid programs


List of essential papers. We consider these as the minimum necessary citations

  1. Neese,F.
     Software update: the ORCA program system, version 5.0
     WIRES Comput. Molec. Sci., 2022 12(1)e1606
     doi.org/10.1002/wcms.1606

List of papers to cite with high priority. The work reported in these papers was absolutely
necessary for this run to complete.
Our perspective: the developers of density functionals and basis sets usually get cited in chemistry papers
Good! But without the algorithms to do something with them, the functionals or basis sets would not do anything.
Hence, in our opinion, the algorithm design and method developments papers are equally worthy of getting cited

  1. Neese,F.
     The SHARK Integral Generation and Digestion System
     J. Comp. Chem., 2022  1-16
     doi.org/10.1002/jcc.26942

List of suggested additional citations. These are papers that are important in the 'surrounding' of 
of this run, or papers that preceded the highly important papers. If you like your results we are grateful for a citation.

  1. Neese,F.
     The ORCA program system
     WIRES Comput. Molec. Sci., 2012 2(1)73-78
     doi.org/10.1002/wcms.81
  2. Neese,F.
     Software update: the ORCA program system, version 4.0
     WIRES Comput. Molec. Sci., 2018 8(1)1-6
     doi.org/10.1002/wcms.1327
  3. Neese,F.; Wennmohs,F.; Becker,U.; Riplinger,C.
     The ORCA quantum chemistry program package
     J. Chem. Phys., 2020 152 Art. No. L224108
     doi.org/10.1063/5.0004608

List of optional additional citations

  1. Neese,F.
     Approximate second-order SCF convergence for spin unrestricted wavefunctions
     Chem. Phys. Lett., 2000 325(1-3)93-98
     doi.org/10.1016/s0009-2614(00)00662-x

Timings for individual modules:

Sum of individual times          ...        2.185 sec (=   0.036 min)
Startup calculation              ...        0.391 sec (=   0.007 min)  17.9 %
SCF iterations                   ...        1.326 sec (=   0.022 min)  60.7 %
Property calculations            ...        0.048 sec (=   0.001 min)   2.2 %
SCF Gradient evaluation          ...        0.420 sec (=   0.007 min)  19.2 %
                             ****ORCA TERMINATED NORMALLY****
TOTAL RUN TIME: 0 days 0 hours 0 minutes 2 seconds 365 msec
