
                                 *****************
                                 * O   R   C   A *
                                 *****************

                                            #,                                       
                                            ###                                      
                                            ####                                     
                                            #####                                    
                                            ######                                   
                                           ########,                                 
                                     ,,################,,,,,                         
                               ,,#################################,,                 
                          ,,##########################################,,             
                       ,#########################################, ''#####,          
                    ,#############################################,,   '####,        
                  ,##################################################,,,,####,       
                ,###########''''           ''''###############################       
              ,#####''   ,,,,##########,,,,          '''####'''          '####       
            ,##' ,,,,###########################,,,                        '##       
           ' ,,###''''                  '''############,,,                           
         ,,##''                                '''############,,,,        ,,,,,,###''
      ,#''                                            '''#######################'''  
     '                                                          ''''####''''         
             ,#######,   #######,   ,#######,      ##                                
            ,#'     '#,  ##    ##  ,#'     '#,    #''#        ,####,   ,####,        
            ##       ##  ##   ,#'  ##            #'  '#       #'       #'  '#        
            ##       ##  #######   ##           ,######,      #####,   #    #        
            '#,     ,#'  ##    ##  '#,     ,#' ,#      #,     #,   #   #,  ,#        
             '#######'   ##     ##  '#######'  #'      '#     '####' # '####'        



                #########################################################
                #                        -***-                          #
                #          Department of theory and spectroscopy        #
                #                                                       #
                #                      Frank Neese                      #
                #                                                       #
                #     Directorship, Architecture, Infrastructure        #
                #                    SHARK, DRIVERS                     #
                #        Core code/Algorithms in most modules           #
                #                                                       #
                #        Max Planck Institute fuer Kohlenforschung      #
                #                Kaiser Wilhelm Platz 1                 #
                #                 D-45470 Muelheim/Ruhr                 #
                #                      Germany                          #
                #                                                       #
                #                  All rights reserved                  #
                #                        -***-                          #
                #########################################################


                         Program Version 6.0.1  -  RELEASE   -


 With contributions from (in alphabetic order):
[Max-Planck-Institut fuer Kohlenforschung]                               
  Daniel Aravena         : Magnetic Suceptibility                        
  Michael Atanasov       : Ab Initio Ligand Field Theory (pilot matlab implementation)
  Alexander A. Auer      : GIAO ZORA, VPT2 properties, NMR spectrum      
  Ute Becker             : All parallelization in ORCA, NUMFREQ, NUMCALC 
  Giovanni Bistoni       : ED, misc. LED, open-shell LED, HFLD           
  Martin Brehm           : Molecular dynamics                            
  Dmytro Bykov           : pre 5.0 version of the SCF Hessian            
  Marcos Casanova-Páez   : Triplet and SCS-CIS(D). UHF-(DLPNO)-IP/EA/STEOM-CCSD. UHF-CVS-IP/STEOM-CCSD   
  Vijay G. Chilkuri      : MRCI spin determinant printing, contributions to CSF-ICE 
  Pauline Colinet        : FMM embedding                                 
  Dipayan Datta          : RHF DLPNO-CCSD density                        
  Achintya Kumar Dutta   : EOM-CC, STEOM-CC                              
  Nicolas Foglia         : Exact transition moments, OPA infrastructure, MCD improvements    
  Dmitry Ganyushin       : Spin-Orbit,Spin-Spin,Magnetic field MRCI      
  Miquel Garcia-Rates    : C-PCM and meta-GGA Hessian, CCSD/C-PCM, Gaussian charge scheme 
  Tiago L. C. Gouveia    : GS-ROHF, GS-ROCIS                             
  Yang Guo               : DLPNO-NEVPT2, F12-NEVPT2, CIM, IAO-localization        
  Andreas Hansen         : Spin unrestricted coupled pair/coupled cluster methods 
  Ingolf Harden          : AUTO-CI MPn and infrastructure                
  Benjamin Helmich-Paris : MC-RPA, TRAH-(SCF,CASSCF), AVAS, COSX integrals, SCF dyn. polar. 
  Lee Huntington         : MR-EOM, pCC                                   
  Robert Izsak           : Overlap fitted RIJCOSX, COSX-SCS-MP3, EOM     
  Riya Kayal             : Wick's Theorem for AUTO-CI, AUTO-CI UHF-CCSDT 
  Emily Kempfer          : AUTO-CI, RHF CISDT and CCSDT                  
  Christian Kollmar      : KDIIS, OOCD, Brueckner-CCSD(T), CCSD density, CASPT2, CASPT2-K, improved NEVPT2 
  Axel Koslowski         : Symmetry handling                             
  Simone Kossmann        : meta-GGA functionals, TD-DFT gradient, OOMP2, (MP2 Hessian; deprecated post 5.0) 
  Lucas Lang             : DCDCAS                                        
  Marvin Lechner         : AUTO-CI (C++ implementation), FIC-MRCC        
  Spencer Leger          : CASSCF response                               
  Dagmar Lenk            : GEPOL surface, SMD, ORCA-2-JSON               
  Dimitrios Liakos       : Extrapolation schemes; Compound Job, initial MDCI parallelization 
  Dimitrios Manganas     : Further ROCIS development; embedding schemes. LFT, Crystal Embedding 
  Dimitrios Pantazis     : SARC Basis sets                               
  Anastasios Papadopoulos: AUTO-CI, single reference methods and gradients 
  Taras Petrenko         : pre 6.0 DFT Hessian and TD-DFT gradient, (ASA, deprecated), ECA, 1-Electron XAS/XES, NRVS 
  Peter Pinski           : DLPNO-MP2, DLPNO-MP2 Gradient                 
  Christoph Reimann      : Effective Core Potentials                     
  Marius Retegan         : Local ZFS, SOC                                
  Christoph Riplinger    : Optimizer, TS searches, QM/MM, DLPNO-CCSD(T), (RO)-DLPNO pert. Triples 
  Michael Roemelt        : Original ROCIS implementation                 
  Masaaki Saitow         : Open-shell DLPNO-CCSD energy and density      
  Barbara Sandhoefer     : DKH picture change effects                    
  Kantharuban Sivalingam : CASSCF convergence/infrastructure, NEVPT2 and variants, FIC-MRCI 
  Bernardo de Souza      : ESD, SOC TD-DFT                               
  Georgi L. Stoychev     : AutoAux, RI-MP2 NMR, DLPNO-MP2 response, X2C  
  Van Anh Tran           : RI-MP2 g-tensors                              
  Willem Van den Heuvel  : Paramagnetic NMR                              
  Zikuan Wang            : NOTCH, Electric field optimization            
  Frank Wennmohs         : Technical directorship and infrastructure     
  Hang Xu                : AUTO-CI-Response properties                   
                                                                         
[FACCTs GmbH]                                                            
  Markus Bursch, Miquel Garcia-Rates, Christoph Riplinger, Bernardo de Souza, Georgi L. Stoychev 
                                                                 
  APM, Basis sets (HGBS, AHGBS, def-TZVP (Ac-Lr), def2-XVPD (La-Lu)), CI-OPT, improved COSX, DLPNO-Multilevel,           
  DOCKER, DRACO, updates on ESD, GOAT, IRC, LR-CPCM, MBIS, meta-GGA TD-DFT gradient, ML-optimized integration grids, 
  MM, NACMEs, nearIR, NEB, NEB-TS, NL-DFT gradient (VV10), 2- and 3-layer-ONIOM, interface openCOSMO-RS, QMMM,   
  Crystal-QMMM, SF, symmetry and pop. for TD-DFT, r2SCAN hybrids, SOLVATOR                                   
                                                                         
[Other institutions]                                                     
  V. Asgeirsson          : NEB                                           
  Christoph Bannwarth    : sTDA-DFT, sTD-DFT, PBEh-3c, B97-3c, D3        
  Sebastian Ehlert       : rSCAN, r2SCAN, r2SCAN-3c, D4, dhf basis sets  
  Marvin Friede          : D4 for Fr, Ra, Ac-Lr                          
  Lars Goerigk           : TD-DFT with DH, B97 family of functionals     
  Stefan Grimme          : VdW corrections, initial TS optimization, DFT functionals, gCP, sTDA/sTD-DF 
  Waldemar Hujo          : DFT-NL                                        
  H. Jonsson             : NEB                                           
  Holger Kruse           : gCP                                           
  Marcel Mueller         : wB97X-3c, vDZP basis set                      
  Hagen Neugebauer       : wr2SCAN                                       
  Tobias Risthaus        : range-separated hybrid DFT                    
  Lukas Wittmann         : regularized MP2, r2SCAN double-hybrids, wr2SCAN        
                                                                         
We gratefully acknowledge several colleagues who have allowed us to      
interface, adapt or use parts of their codes:                            
  Ed Valeev, F. Pavosevic, A. Kumar             : LibInt (2-el integral package), F12 methods 
  Garnet Chan, S. Sharma, J. Yang, R. Olivares  : DMRG                   
  Ulf Ekstrom                                   : XCFun DFT Library      
  Mihaly Kallay                                 : mrcc  (arbitrary order and MRCC methods)
  Frank Weinhold                                : gennbo (NPA and NBO analysis)           
  Simon Mueller                                 : openCOSMO-RS                            
  Christopher J. Cramer and Donald G. Truhlar   : smd solvation model                     
  S Lehtola, MJT Oliveira, MAL Marques          : LibXC Library                           
  Liviu Ungur et al                             : ANISO software                          


 Your calculation uses the libint2 library for the computation of 2-el integrals
 For citations please refer to: http://libint.valeyev.net

 Your ORCA version has been built with support for libXC version: 6.2.2
 For citations please refer to: https://libxc.gitlab.io

 This ORCA versions uses:
   CBLAS   interface :  Fast vector & matrix operations
   LAPACKE interface :  Fast linear algebra routines
   SCALAPACK package :  Parallel linear algebra routines
   Shared memory     :  Shared parallel matrices
   BLAS/LAPACK       :  OpenBLAS 0.3.27  USE64BITINT DYNAMIC_ARCH NO_AFFINITY SkylakeX SINGLE_THREADED
        Core in use  :  SkylakeX
   Copyright (c) 2011-2014, The OpenBLAS Project


================================================================================

----- Orbital basis set information -----
Your calculation utilizes the basis: 6-31G*
   H-He, Li-Ne : W. J. Hehre, R. Ditchfield and J.A. Pople, J. Chem. Phys. 56, 2257 (1972).
                 Note: He and Ne are unpublished basis sets taken from the Gaussian program.
                 Note: Li and B from J. D. Dill and J. A. Pople, J. Chem. Phys. 62, 2921 (1975).
   Na - Ar     : M. M. Francl, W. J. Pietro, W. J. Hehre, J. S. Binkley, M. S. Gordon, 
                 D. J. DeFrees and J. A. Pople, J. Chem. Phys. 77, 3654 (1982).
   K - Zn      : V. A. Rassolov, J. A. Pople, M. A. Ratner, and T. L. Windus, J. Chem. Phys. 109, 1223 (1998).

================================================================================
                                        WARNINGS
                       Please study these warnings very carefully!
================================================================================


================================================================================
                                       INPUT FILE
================================================================================
NAME = frag.inp
|  1> !HF 6-31G* EnGrad
|  2> %pal nprocs 1 end
|  3> *xyz -1 1
|  4> O 24.10596000 46.93173000 41.50917000
|  5> H 24.52212000 47.66562000 41.73132000
|  6> H 24.52341000 46.31399000 41.96223000
|  7> O 19.10373000 45.58535000 40.48424000
|  8> H 18.38270000 45.25544000 40.12036000
|  9> H 18.82331000 45.89664000 41.24949000
| 10> O 21.99613000 48.36911000 43.54199000
| 11> H 21.97702000 49.24128000 43.53308000
| 12> *
| 13> 
| 14>                          ****END OF INPUT****
================================================================================

                     *******************************
                     * Energy+Gradient Calculation *
                     *******************************

---------------------------------
CARTESIAN COORDINATES (ANGSTROEM)
---------------------------------
  O     24.105960   46.931730   41.509170
  H     24.522120   47.665620   41.731320
  H     24.523410   46.313990   41.962230
  O     19.103730   45.585350   40.484240
  H     18.382700   45.255440   40.120360
  H     18.823310   45.896640   41.249490
  O     21.996130   48.369110   43.541990
  H     21.977020   49.241280   43.533080

----------------------------
CARTESIAN COORDINATES (A.U.)
----------------------------
  NO LB      ZA    FRAG     MASS         X           Y           Z
   0 O     8.0000    0    15.999   45.553663   88.688117   78.440963
   1 H     1.0000    0     1.008   46.340091   90.074968   78.860766
   2 H     1.0000    0     1.008   46.342529   87.520757   79.297123
   3 O     8.0000    0    15.999   36.100818   86.143827   76.504126
   4 H     1.0000    0     1.008   34.738269   85.520388   75.816493
   5 H     1.0000    0     1.008   35.570901   86.732080   77.950239
   6 O     8.0000    0    15.999   41.566662   91.404371   82.282436
   7 H     1.0000    0     1.008   41.530549   93.052534   82.265599

--------------------------------
INTERNAL COORDINATES (ANGSTROEM)
--------------------------------
 O      0   0   0     0.000000000000     0.00000000     0.00000000
 H      1   0   0     0.872430111929     0.00000000     0.00000000
 H      1   2   0     0.872427976225   103.60043743     0.00000000
 O      1   2   3     5.280674727930   135.70535251   142.96442128
 H      4   1   2     0.872429666735   163.79126672   132.31481492
 H      4   1   2     0.872435901944    92.47916549   305.09556775
 O      2   1   3     3.186541935877    87.26422674   254.97016683
 H      7   2   1     0.872424832923   103.43046951   210.28054201

---------------------------
INTERNAL COORDINATES (A.U.)
---------------------------
 O      0   0   0     0.000000000000     0.00000000     0.00000000
 H      1   0   0     1.648653982532     0.00000000     0.00000000
 H      1   2   0     1.648649946636   103.60043743     0.00000000
 O      1   2   3     9.979029038107   135.70535251   142.96442128
 H      4   1   2     1.648653141238   163.79126672   132.31481492
 H      4   1   2     1.648664924074    92.47916549   305.09556775
 O      2   1   3     6.021691573062    87.26422674   254.97016683
 H      7   2   1     1.648644006656   103.43046951   210.28054201

---------------------
BASIS SET INFORMATION
---------------------
There are 2 groups of distinct atoms

 Group   1 Type O   : 10s4p1d contracted to 3s2p1d pattern {631/31/1}
 Group   2 Type H   : 4s contracted to 2s pattern {31}

Atom   0O    basis set group =>   1
Atom   1H    basis set group =>   2
Atom   2H    basis set group =>   2
Atom   3O    basis set group =>   1
Atom   4H    basis set group =>   2
Atom   5H    basis set group =>   2
Atom   6O    basis set group =>   1
Atom   7H    basis set group =>   2
------------------------------------------------------------------------------
                             ORCA STARTUP CALCULATIONS
------------------------------------------------------------------------------
------------------------------------------------------------------------------
                   ___                                                        
                  /   \      - P O W E R E D   B Y -                         
                 /     \                                                     
                 |  |  |   _    _      __       _____    __    __             
                 |  |  |  | |  | |    /  \     |  _  \  |  |  /  |          
                  \  \/   | |  | |   /    \    | | | |  |  | /  /          
                 / \  \   | |__| |  /  /\  \   | |_| |  |  |/  /          
                |  |  |   |  __  | /  /__\  \  |    /   |      \           
                |  |  |   | |  | | |   __   |  |    \   |  |\   \          
                \     /   | |  | | |  |  |  |  | |\  \  |  | \   \       
                 \___/    |_|  |_| |__|  |__|  |_| \__\ |__|  \__/        
                                                                              
                      - O R C A' S   B I G   F R I E N D -                    
                                      &                                       
                       - I N T E G R A L  F E E D E R -                       
                                                                              
 v1 FN, 2020, v2 2021, v3 2022-2024                                           
------------------------------------------------------------------------------


----------------------
SHARK INTEGRAL PACKAGE
----------------------

Number of atoms                             ...      8
Number of basis functions                   ...     52
Number of shells                            ...     28
Maximum angular momentum                    ...      2
Integral batch strategy                     ... SHARK/LIBINT Hybrid
RI-J (if used) integral strategy            ... SPLIT-RIJ (Revised 2003 algorithm where possible)
Printlevel                                  ...      1
Contraction scheme used                     ... SEGMENTED contraction
Prescreening option                         ... SCHWARTZ
   Thresh                                   ... 2.500e-11
   Tcut                                     ... 2.500e-12
   Tpresel                                  ... 2.500e-12 
Coulomb Range Separation                    ... NOT USED
Exchange Range Separation                   ... NOT USED
Multipole approximations                    ... NOT USED
Finite Nucleus Model                        ... NOT USED
CABS basis                                  ... NOT available
Auxiliary Coulomb fitting basis             ... NOT available
Auxiliary J/K fitting basis                 ... NOT available
Auxiliary Correlation fitting basis         ... NOT available
Auxiliary 'external' fitting basis          ... NOT available

Checking pre-screening integrals            ... done (  0.0 sec) Dimension = 28
Check shell pair data                       ... done (  0.0 sec)
Shell pair information
Shell pair cut-off parameter TPreSel        ...   2.5e-12
Total number of shell pairs                 ...       406
Shell pairs after pre-screening             ...       332
Total number of primitive shell pairs       ...      2223
Primitive shell pairs kept                  ...      1255
          la=0 lb=0:    155 shell pairs
          la=1 lb=0:     97 shell pairs
          la=1 lb=1:     19 shell pairs
          la=2 lb=0:     43 shell pairs
          la=2 lb=1:     14 shell pairs
          la=2 lb=2:      4 shell pairs

Calculating one electron integrals          ... done (  0.0 sec)
Calculating Nuclear repulsion               ... done (  0.0 sec) ENN=     58.305681520279 Eh

Diagonalization of the overlap matrix:
Smallest eigenvalue                        ... 4.941e-02
Time for diagonalization                   ...    0.000 sec
Threshold for overlap eigenvalues          ... 1.000e-07
Number of eigenvalues below threshold      ... 0
Time for construction of square roots      ...    0.002 sec
Total time needed                          ...    0.007 sec

-------------------
DFT GRID GENERATION
-------------------

General Integration Accuracy     IntAcc      ... 4.388
Radial Grid Type                 RadialGrid  ... OptM3 with GC (2021)
Angular Grid (max. ang.)         AngularGrid ... 4 (Lebedev-302)
Angular grid pruning method      GridPruning ... 4 (adaptive)
Weight generation scheme         WeightScheme... mBecke (2022)
Basis function cutoff            BFCut       ... 1.0000e-11
Integration weight cutoff        WCut        ... 1.0000e-14
Partially contracted basis set               ... off
Rotationally invariant grid construction     ... off
Angular grids for H and He will be reduced by one unit

Total number of grid points                  ...    34922
Total number of batches                      ...      549
Average number of points per batch           ...       63
Average number of grid points per atom       ...     4365
Initializing property integral containers    ... done (  0.0 sec)

SHARK setup successfully completed in   0.3 seconds

Maximum memory used throughout the entire STARTUP-calculation: 12.3 MB
-------------------------------------------------------------------------------
                                 ORCA GUESS
                   Start orbitals & Density for SCF / CASSCF
-------------------------------------------------------------------------------

------------
SCF SETTINGS
------------
Hamiltonian:
 Ab initio Hamiltonian  Method          .... Hartree-Fock(GTOs)


General Settings:
 Integral files         IntName         .... frag
 Hartree-Fock type      HFTyp           .... RHF
 Total Charge           Charge          ....   -1
 Multiplicity           Mult            ....    1
 Number of Electrons    NEL             ....   30
 Basis Dimension        Dim             ....   52
 Nuclear Repulsion      ENuc            ....     58.3056815203 Eh

Convergence Acceleration:
 AO-DIIS                CNVDIIS         .... on
   Start iteration      DIISMaxIt       ....    12
   Startup error        DIISStart       ....  0.200000
   # of expansion vecs  DIISMaxEq       ....     5
   Bias factor          DIISBfac        ....   1.050
   Max. coefficient     DIISMaxC        ....  10.000
 MO-DIIS                CNVKDIIS        .... off
 Trust-Rad. Augm. Hess. CNVTRAH         .... auto
   Auto Start mean grad. ratio tolernc. ....  1.125000
   Auto Start start iteration           ....    50
   Auto Start num. interpolation iter.  ....    10
   Max. Number of Micro iterations      ....    24
   Max. Number of Macro iterations      .... Maxiter - #DIIS iter
   Number of Davidson start vectors     ....     2
   Converg. threshold    (grad. norm)   ....   1.000e-05
   Grad. Scal. Fac. for Micro threshold ....   0.100
   Minimum threshold for Micro iter.    ....   1.000e-02
   NR start threshold (gradient norm)   ....   1.000e-04
   Initial trust radius                 ....   0.400
   Minimum AH scaling param. (alpha)    ....   1.000
   Maximum AH scaling param. (alpha)    .... 1000.000
   Quad. conv. algorithm                .... NR
   White noise on init. David. guess    .... on
   Maximum white noise                  ....   0.010
   Pseudo random numbers                .... off
   Inactive MOs                         .... canonical
   Orbital update algorithm             .... Taylor
   Preconditioner                       .... Diag
   Full preconditioner red. dimension   ....   250
 SOSCF                  CNVSOSCF        .... on
   Start iteration      SOSCFMaxIt      ....   150
   Startup grad/error   SOSCFStart      ....  0.003300
   Hessian update       SOSCFHessUp     .... L-BFGS
 Level Shifting         CNVShift        .... on
   Level shift para.    LevelShift      ....    0.2500
   Turn off err/grad.   ShiftErr        ....    0.0010
 Zerner damping         CNVZerner       .... off
 Static damping         CNVDamp         .... on
   Fraction old density DampFac         ....    0.7000
   Max. Damping (<1)    DampMax         ....    0.9800
   Min. Damping (>=0)   DampMin         ....    0.0000
   Turn off err/grad.   DampErr         ....    0.1000

SCF Procedure:
 Maximum # iterations   MaxIter         ....   125
 SCF integral mode      SCFMode         .... Direct
   Integral package                     .... SHARK and LIBINT hybrid scheme
 Reset frequency        DirectResetFreq ....    20
 Integral Threshold     Thresh          ....  2.500e-11 Eh
 Primitive CutOff       TCut            ....  2.500e-12 Eh

Convergence Tolerance:
 Convergence Check Mode ConvCheckMode   .... Total+1el-Energy
 Convergence forced     ConvForced      .... 0
 Energy Change          TolE            ....  1.000e-08 Eh
 1-El. energy change                    ....  1.000e-05 Eh
 Orbital Gradient       TolG            ....  1.000e-05
 Orbital Rotation angle TolX            ....  1.000e-05
 DIIS Error             TolErr          ....  5.000e-07

------------------------------
INITIAL GUESS: MODEL POTENTIAL
------------------------------
Loading Hartree-Fock densities                     ... done
Calculating cut-offs                               ... done
Initializing the effective Hamiltonian             ... done
Setting up the integral package (SHARK)            ... done
Starting the Coulomb interaction                   ... done (   0.0 sec)
Making the grid                                    ... done (   0.1 sec)
Mapping shells                                     ... done
Starting the XC term evaluation                    ... done (   0.0 sec)
Transforming the Hamiltonian                       ... done (   0.0 sec)
Diagonalizing the Hamiltonian                      ... done (   0.0 sec)
Back transforming the eigenvectors                 ... done (   0.0 sec)
Now organizing SCF variables                       ... done
                      ------------------
                      INITIAL GUESS DONE (   0.1 sec)
                      ------------------
             **** ENERGY FILE WAS UPDATED (frag.en.tmp) ****
Finished Guess after   0.2 sec
Maximum memory used throughout the entire GUESS-calculation: 5.3 MB

-------------------------------------------------------------------------------------------
                                      ORCA LEAN-SCF
                              memory conserving SCF solver
-------------------------------------------------------------------------------------------

----------------------------------------D-I-I-S--------------------------------------------
Iteration    Energy (Eh)           Delta-E    RMSDP     MaxDP     DIISErr   Damp  Time(sec)
-------------------------------------------------------------------------------------------
               ***  Starting incremental Fock matrix formation  ***
    1    -226.8643660170789644     0.00e+00  9.63e-03  1.09e-01  4.80e-01  0.700   0.1
    2    -227.0343050801790810    -1.70e-01  6.66e-03  7.43e-02  2.88e-01  0.700   0.1
                               ***Turning on AO-DIIS***
    3    -227.1251936966783660    -9.09e-02  2.62e-03  3.02e-02  1.58e-01  0.700   0.1
    4    -227.1798879571591101    -5.47e-02  1.58e-03  1.95e-02  1.08e-01  0.700   0.1
    5    -227.2160212836647020    -3.61e-02  1.11e-03  1.41e-02  7.76e-02  0.700   0.1
    6    -227.2407218437029996    -2.47e-02  2.72e-03  3.53e-02  5.62e-02  0.000   0.1
    7    -227.2968353806258506    -5.61e-02  2.41e-04  3.00e-03  3.90e-03  0.000   0.1
                              *** Initializing SOSCF ***
---------------------------------------S-O-S-C-F--------------------------------------
Iteration    Energy (Eh)           Delta-E    RMSDP     MaxDP     MaxGrad    Time(sec)
--------------------------------------------------------------------------------------
    8    -227.2968750530295097    -3.97e-05  1.80e-04  2.28e-03  1.90e-03     0.1
               *** Restarting incremental Fock matrix formation ***
    9    -227.2968863917604381    -1.13e-05  7.98e-05  1.10e-03  4.44e-04     0.1
   10    -227.2968877715858298    -1.38e-06  5.48e-05  7.10e-04  1.64e-04     0.1
   11    -227.2968880774535023    -3.06e-07  5.58e-06  5.99e-05  4.80e-05     0.1
   12    -227.2968880909886025    -1.35e-08  2.05e-06  3.03e-05  1.13e-05     0.1
   13    -227.2968880922131234    -1.22e-09  4.85e-07  4.85e-06  1.73e-06     0.1
                 **** Energy Check signals convergence ****

               *****************************************************
               *                     SUCCESS                       *
               *           SCF CONVERGED AFTER  13 CYCLES          *
               *****************************************************

             **** ENERGY FILE WAS UPDATED (frag.en.tmp) ****

----------------
TOTAL SCF ENERGY
----------------

Total Energy       :       -227.29688809221312 Eh           -6185.06277 eV

Components:
Nuclear Repulsion  :         58.30568152027949 Eh            1586.57825 eV
Electronic Energy  :       -285.60256961249263 Eh           -7771.64102 eV
One Electron Energy:       -436.65765559274570 Eh          -11882.05888 eV
Two Electron Energy:        151.05508598025307 Eh            4110.41786 eV

Virial components:
Potential Energy   :       -455.74878543778811 Eh          -12401.55493 eV
Kinetic Energy     :        228.45189734557499 Eh            6216.49217 eV
Virial Ratio       :          1.99494419058549

---------------
SCF CONVERGENCE
---------------

  Last Energy change         ...    1.2245e-09  Tolerance :   1.0000e-08
  Last MAX-Density change    ...    4.8473e-06  Tolerance :   1.0000e-07
  Last RMS-Density change    ...    4.8545e-07  Tolerance :   5.0000e-09
  Last DIIS Error            ...    1.8988e-03  Tolerance :   5.0000e-07
  Last Orbital Gradient      ...    1.7266e-06  Tolerance :   1.0000e-05
  Last Orbital Rotation      ...    3.1732e-06  Tolerance :   1.0000e-05


----------------
ORBITAL ENERGIES
----------------

  NO   OCC          E(Eh)            E(eV) 
   0   2.0000     -20.425513      -555.8065 
   1   2.0000     -20.364938      -554.1581 
   2   2.0000     -20.063661      -545.9600 
   3   2.0000      -1.279416       -34.8147 
   4   2.0000      -1.219125       -33.1741 
   5   2.0000      -0.845264       -23.0008 
   6   2.0000      -0.641143       -17.4464 
   7   2.0000      -0.582600       -15.8534 
   8   2.0000      -0.474810       -12.9202 
   9   2.0000      -0.416157       -11.3242 
  10   2.0000      -0.392599       -10.6832 
  11   2.0000      -0.329286        -8.9603 
  12   2.0000      -0.183441        -4.9917 
  13   2.0000      -0.028910        -0.7867 
  14   2.0000      -0.026879        -0.7314 
  15   0.0000       0.338627         9.2145 
  16   0.0000       0.392985        10.6937 
  17   0.0000       0.438140        11.9224 
  18   0.0000       0.485406        13.2086 
  19   0.0000       0.579492        15.7688 
  20   0.0000       1.170716        31.8568 
  21   0.0000       1.225110        33.3369 
  22   0.0000       1.279652        34.8211 
  23   0.0000       1.295416        35.2501 
  24   0.0000       1.329494        36.1774 
  25   0.0000       1.351304        36.7708 
*Only the first 10 virtual orbitals were printed.

                    ********************************
                    * MULLIKEN POPULATION ANALYSIS *
                    ********************************

-----------------------
MULLIKEN ATOMIC CHARGES
-----------------------
   0 O :   -0.863466
   1 H :    0.432597
   2 H :    0.420059
   3 O :   -0.878560
   4 H :    0.423949
   5 H :    0.454557
   6 O :   -1.271793
   7 H :    0.282657
Sum of atomic charges:   -1.0000000

--------------------------------
MULLIKEN REDUCED ORBITAL CHARGES
--------------------------------
  0 O s       :     3.843938  s :     3.843938
      pz      :     1.847418  p :     4.985611
      px      :     1.791159
      py      :     1.347034
      dz2     :     0.003111  d :     0.033917
      dxz     :     0.007259
      dyz     :     0.007545
      dx2y2   :     0.000942
      dxy     :     0.015059

  1 H s       :     0.567403  s :     0.567403

  2 H s       :     0.579941  s :     0.579941

  3 O s       :     3.848649  s :     3.848649
      pz      :     1.513531  p :     4.995747
      px      :     1.630386
      py      :     1.851830
      dz2     :     0.006636  d :     0.034163
      dxz     :     0.011250
      dyz     :     0.002379
      dx2y2   :     0.006640
      dxy     :     0.007259

  4 H s       :     0.576051  s :     0.576051

  5 H s       :     0.545443  s :     0.545443

  6 O s       :     3.921933  s :     3.921933
      pz      :     1.994950  p :     5.331369
      px      :     1.990816
      py      :     1.345603
      dz2     :     0.003678  d :     0.018491
      dxz     :     0.000006
      dyz     :     0.001887
      dx2y2   :     0.011043
      dxy     :     0.001877

  7 H s       :     0.717343  s :     0.717343



                     *******************************
                     * LOEWDIN POPULATION ANALYSIS *
                     *******************************

----------------------
LOEWDIN ATOMIC CHARGES
----------------------
   0 O :   -0.616149
   1 H :    0.306859
   2 H :    0.299749
   3 O :   -0.621397
   4 H :    0.301668
   5 H :    0.319682
   6 O :   -1.182770
   7 H :    0.192357

-------------------------------
LOEWDIN REDUCED ORBITAL CHARGES
-------------------------------
  0 O s       :     3.558053  s :     3.558053
      pz      :     1.856217  p :     5.014804
      px      :     1.802088
      py      :     1.356499
      dz2     :     0.003691  d :     0.043293
      dxz     :     0.007769
      dyz     :     0.010605
      dx2y2   :     0.001830
      dxy     :     0.019396

  1 H s       :     0.693141  s :     0.693141

  2 H s       :     0.700251  s :     0.700251

  3 O s       :     3.558117  s :     3.558117
      pz      :     1.516575  p :     5.019972
      px      :     1.649873
      py      :     1.853524
      dz2     :     0.008962  d :     0.043308
      dxz     :     0.014419
      dyz     :     0.003450
      dx2y2   :     0.007506
      dxy     :     0.008972

  4 H s       :     0.698332  s :     0.698332

  5 H s       :     0.680318  s :     0.680318

  6 O s       :     3.746453  s :     3.746453
      pz      :     1.995264  p :     5.410757
      px      :     1.991686
      py      :     1.423808
      dz2     :     0.005435  d :     0.025559
      dxz     :     0.000007
      dyz     :     0.001889
      dx2y2   :     0.016340
      dxy     :     0.001887

  7 H s       :     0.807643  s :     0.807643



                      *****************************
                      * MAYER POPULATION ANALYSIS *
                      *****************************

  NA   - Mulliken gross atomic population
  ZA   - Total nuclear charge
  QA   - Mulliken gross atomic charge
  VA   - Mayer's total valence
  BVA  - Mayer's bonded valence
  FA   - Mayer's free valence

  ATOM       NA         ZA         QA         VA         BVA        FA
  0 O      8.8635     8.0000    -0.8635     1.5696     1.5696     0.0000
  1 H      0.5674     1.0000     0.4326     0.7880     0.7880     0.0000
  2 H      0.5799     1.0000     0.4201     0.7848     0.7848     0.0000
  3 O      8.8786     8.0000    -0.8786     1.5584     1.5584     0.0000
  4 H      0.5761     1.0000     0.4239     0.7800     0.7800    -0.0000
  5 H      0.5454     1.0000     0.4546     0.7595     0.7595    -0.0000
  6 O      9.2718     8.0000    -1.2718     0.8826     0.8826     0.0000
  7 H      0.7173     1.0000     0.2827     0.8601     0.8601     0.0000

  Mayer bond orders larger than 0.100000
B(  0-O ,  1-H ) :   0.7771 B(  0-O ,  2-H ) :   0.7929 B(  3-O ,  4-H ) :   0.7896 
B(  3-O ,  5-H ) :   0.7689 B(  6-O ,  7-H ) :   0.8598 

-------
TIMINGS
-------

Total SCF time: 0 days 0 hours 0 min 1 sec 

Total time                  ....       1.071 sec
Sum of individual times     ....       0.972 sec  ( 90.8%)

SCF preparation             ....       0.070 sec  (  6.6%)
Fock matrix formation       ....       0.535 sec  ( 50.0%)
  Startup                   ....       0.037 sec  (  6.9% of F)
  Coulomb+Exchange Fock     ....       0.418 sec  ( 78.1% of F)
Diagonalization             ....       0.000 sec  (  0.0%)
Density matrix formation    ....       0.106 sec  (  9.9%)
Total Energy calculation    ....       0.030 sec  (  2.8%)
Population analysis         ....       0.023 sec  (  2.2%)
Orbital Transformation      ....       0.019 sec  (  1.7%)
Orbital Orthonormalization  ....       0.000 sec  (  0.0%)
DIIS solution               ....       0.135 sec  ( 12.6%)
SOSCF solution              ....       0.053 sec  (  4.9%)
Finished LeanSCF after   1.1 sec

Maximum memory used throughout the entire LEANSCF-calculation: 7.5 MB

-------------------------   --------------------
FINAL SINGLE POINT ENERGY      -227.296888092213
-------------------------   --------------------

------------------------------------------------------------------------------
                         ORCA SCF GRADIENT CALCULATION
------------------------------------------------------------------------------

Nuc. rep. gradient        (SHARK) ... done (  0.0 sec)
HCore & Overlap gradient  (SHARK) ... done (  0.0 sec)
Two-electron gradient     (SHARK) ... done (  0.1 sec)

------------------
CARTESIAN GRADIENT
------------------

   1   O   :    0.080553421    0.021301596    0.093777063
   2   H   :   -0.035364082   -0.101301973   -0.031775342
   3   H   :   -0.043363525    0.082729046   -0.059157452
   4   O   :   -0.110830856    0.001891064    0.050322907
   5   H   :    0.087743523    0.044361461    0.053442753
   6   H   :    0.022505102   -0.045957092   -0.102887785
   7   O   :   -0.004229890    0.117935714   -0.005168146
   8   H   :    0.002986306   -0.120959816    0.001446001

Difference to translation invariance:
           :   -0.0000000000    0.0000000000   -0.0000000000

Difference to rotation invariance:
           :    0.0000010846    0.0000009035   -0.0000006353

Norm of the Cartesian gradient     ...    0.3310978970
RMS gradient                       ...    0.0675850752
MAX gradient                       ...    0.1209598162

-------
TIMINGS
-------

Total SCF gradient time     ....        0.148 sec

Densities                   ....       0.000 sec  (  0.0%)
One electron gradient       ....       0.015 sec  ( 10.1%)
Two electron gradient       ....       0.133 sec  ( 89.7%)

Maximum memory used throughout the entire SCFGRAD-calculation: 13.3 MB

------------------------------------------------------------------------------
                              ORCA PROPERTY CALCULATIONS
------------------------------------------------------------------------------

GBWName                                 ... frag.gbw
Number of atoms                         ...      8
Number of basis functions               ...     52
Max core memory                         ...   1024 MB

Electric properties:
Dipole moment                           ... YES
Quadrupole moment                       ...  NO
Static polarizability (Dipole/Dipole)   ...  NO
Static polarizability (Dipole/Quad.)    ...  NO
Static polarizability (Quad./Quad.)     ...  NO
Static polarizability (Velocity)        ...  NO

Atomic electric properties:
Dipole moment                           ...  NO
Quadrupole moment                       ...  NO
Static polarizability                   ...  NO

Choice of electric origin               ... Center of mass
Position of electric origin             ...    41.057631    88.729731    79.053245

General magnetic properties:
Magnetizability                         ...  NO

EPR properties:
g-Tensor (aka g-matrix)                 ...  NO
Zero-Field splitting spin-orbit         ...  NO
Zero-field splitting spin-spin          ...  NO
Hyperfine couplings                     ...  NO (   0 nuclei)
Quadrupole couplings                    ...  NO (   0 nuclei)
Contact density                         ...  NO (   0 nuclei)

NMR properties:
Chemical shifts                         ...  NO (   0 nuclei)
Spin-rotation constants                 ...  NO (   0 nuclei)
Spin-spin couplings                     ...  NO (   0 nuclei,    0 pairs)

Choice of magnetic origin               ... GIAO
Position of magnetic origin             ...     0.000000     0.000000     0.000000

Properties with geometric perturbations:
SCF Hessian                             ...  NO
IR spectrum                             ...  NO
VCD spectrum                            ...  NO
X-ray spectroscopy properties:
SCF XES/XAS/RIXS spectra                ...  NO


-------------
DIPOLE MOMENT
-------------

Method             : SCF
Type of density    : Electron Density
Multiplicity       :   1
Irrep              :   0
Energy             :  -227.2968880922131234 Eh
Relativity type    : 
Basis              : AO
                                X                 Y                 Z
Electronic contribution:     -0.346574612      -1.691934526      -1.765765226
Nuclear contribution   :     -0.379820726      -0.370948761      -0.533663641
                        -----------------------------------------
Total Dipole Moment    :     -0.726395338      -2.062883288      -2.299428867
                        -----------------------------------------
Magnitude (a.u.)       :      3.173406807
Magnitude (Debye)      :      8.066159075



--------------------
Rotational spectrum 
--------------------
 
Rotational constants in cm-1:             0.176411             0.056363             0.042989 
Rotational constants in MHz :          5288.666570          1689.727277          1288.776048 

Dipole components along the rotational axes: 
x,y,z [a.u.] :     2.281599    -2.205431    -0.029867 
x,y,z [Debye]:     5.799364    -5.605759    -0.075916 

 

Dipole moment calculation done in   0.0 sec 

Maximum memory used throughout the entire PROP-calculation: 2.0 MB

--------------------------------
SUGGESTED CITATIONS FOR THIS RUN
--------------------------------

Below you find a list of papers that are relevant to this ORCA run
We neither can nor want to force you to cite these papers, but we appreciate if you do
You receive ORCA, which is the product of decades of hard work by many enthusiastic individuals, for free
The only thing we kindly ask in return is that you cite our papers,
We deeply appreciate it, if you show your appreciation for ORCA by not just citing the generic ORCA reference.

Please note that relegating all ORCA citations to the supporting information does *not* help us.
SI sections are not indexed - citations you put there will not count into any citation statistics
But we need these citations in order to attract the funding resources that allow us to do what we are doing

Therefore, if you are a happy ORCA user, please consider citing a few of the papers listed below in the main body of your paper

In addition to the list printed below, the program has created the file frag.bibtex that contains the list in bibtex format
You can import this file easily into all common literature databanks and citation aid programs


List of essential papers. We consider these as the minimum necessary citations

  1. Neese,F.
     Software update: the ORCA program system, version 5.0
     WIRES Comput. Molec. Sci., 2022 12(1)e1606
     doi.org/10.1002/wcms.1606

List of papers to cite with high priority. The work reported in these papers was absolutely
necessary for this run to complete.
Our perspective: the developers of density functionals and basis sets usually get cited in chemistry papers
Good! But without the algorithms to do something with them, the functionals or basis sets would not do anything.
Hence, in our opinion, the algorithm design and method developments papers are equally worthy of getting cited

  1. Neese,F.
     The SHARK Integral Generation and Digestion System
     J. Comp. Chem., 2022  1-16
     doi.org/10.1002/jcc.26942

List of suggested additional citations. These are papers that are important in the 'surrounding' of 
of this run, or papers that preceded the highly important papers. If you like your results we are grateful for a citation.

  1. Neese,F.
     The ORCA program system
     WIRES Comput. Molec. Sci., 2012 2(1)73-78
     doi.org/10.1002/wcms.81
  2. Neese,F.
     Software update: the ORCA program system, version 4.0
     WIRES Comput. Molec. Sci., 2018 8(1)1-6
     doi.org/10.1002/wcms.1327
  3. Neese,F.; Wennmohs,F.; Becker,U.; Riplinger,C.
     The ORCA quantum chemistry program package
     J. Chem. Phys., 2020 152 Art. No. L224108
     doi.org/10.1063/5.0004608

List of optional additional citations

  1. Neese,F.
     Approximate second-order SCF convergence for spin unrestricted wavefunctions
     Chem. Phys. Lett., 2000 325(1-3)93-98
     doi.org/10.1016/s0009-2614(00)00662-x

Timings for individual modules:

Sum of individual times          ...        1.883 sec (=   0.031 min)
Startup calculation              ...        0.300 sec (=   0.005 min)  16.0 %
SCF iterations                   ...        1.307 sec (=   0.022 min)  69.4 %
Property calculations            ...        0.067 sec (=   0.001 min)   3.6 %
SCF Gradient evaluation          ...        0.208 sec (=   0.003 min)  11.0 %
                             ****ORCA TERMINATED NORMALLY****
TOTAL RUN TIME: 0 days 0 hours 0 minutes 2 seconds 139 msec
