
                                 *****************
                                 * O   R   C   A *
                                 *****************

                                            #,                                       
                                            ###                                      
                                            ####                                     
                                            #####                                    
                                            ######                                   
                                           ########,                                 
                                     ,,################,,,,,                         
                               ,,#################################,,                 
                          ,,##########################################,,             
                       ,#########################################, ''#####,          
                    ,#############################################,,   '####,        
                  ,##################################################,,,,####,       
                ,###########''''           ''''###############################       
              ,#####''   ,,,,##########,,,,          '''####'''          '####       
            ,##' ,,,,###########################,,,                        '##       
           ' ,,###''''                  '''############,,,                           
         ,,##''                                '''############,,,,        ,,,,,,###''
      ,#''                                            '''#######################'''  
     '                                                          ''''####''''         
             ,#######,   #######,   ,#######,      ##                                
            ,#'     '#,  ##    ##  ,#'     '#,    #''#        ,####,   ,####,        
            ##       ##  ##   ,#'  ##            #'  '#       #'       #'  '#        
            ##       ##  #######   ##           ,######,      #####,   #    #        
            '#,     ,#'  ##    ##  '#,     ,#' ,#      #,     #,   #   #,  ,#        
             '#######'   ##     ##  '#######'  #'      '#     '####' # '####'        



                #########################################################
                #                        -***-                          #
                #          Department of theory and spectroscopy        #
                #                                                       #
                #                      Frank Neese                      #
                #                                                       #
                #     Directorship, Architecture, Infrastructure        #
                #                    SHARK, DRIVERS                     #
                #        Core code/Algorithms in most modules           #
                #                                                       #
                #        Max Planck Institute fuer Kohlenforschung      #
                #                Kaiser Wilhelm Platz 1                 #
                #                 D-45470 Muelheim/Ruhr                 #
                #                      Germany                          #
                #                                                       #
                #                  All rights reserved                  #
                #                        -***-                          #
                #########################################################


                         Program Version 6.0.1  -  RELEASE   -


 With contributions from (in alphabetic order):
[Max-Planck-Institut fuer Kohlenforschung]                               
  Daniel Aravena         : Magnetic Suceptibility                        
  Michael Atanasov       : Ab Initio Ligand Field Theory (pilot matlab implementation)
  Alexander A. Auer      : GIAO ZORA, VPT2 properties, NMR spectrum      
  Ute Becker             : All parallelization in ORCA, NUMFREQ, NUMCALC 
  Giovanni Bistoni       : ED, misc. LED, open-shell LED, HFLD           
  Martin Brehm           : Molecular dynamics                            
  Dmytro Bykov           : pre 5.0 version of the SCF Hessian            
  Marcos Casanova-Páez   : Triplet and SCS-CIS(D). UHF-(DLPNO)-IP/EA/STEOM-CCSD. UHF-CVS-IP/STEOM-CCSD   
  Vijay G. Chilkuri      : MRCI spin determinant printing, contributions to CSF-ICE 
  Pauline Colinet        : FMM embedding                                 
  Dipayan Datta          : RHF DLPNO-CCSD density                        
  Achintya Kumar Dutta   : EOM-CC, STEOM-CC                              
  Nicolas Foglia         : Exact transition moments, OPA infrastructure, MCD improvements    
  Dmitry Ganyushin       : Spin-Orbit,Spin-Spin,Magnetic field MRCI      
  Miquel Garcia-Rates    : C-PCM and meta-GGA Hessian, CCSD/C-PCM, Gaussian charge scheme 
  Tiago L. C. Gouveia    : GS-ROHF, GS-ROCIS                             
  Yang Guo               : DLPNO-NEVPT2, F12-NEVPT2, CIM, IAO-localization        
  Andreas Hansen         : Spin unrestricted coupled pair/coupled cluster methods 
  Ingolf Harden          : AUTO-CI MPn and infrastructure                
  Benjamin Helmich-Paris : MC-RPA, TRAH-(SCF,CASSCF), AVAS, COSX integrals, SCF dyn. polar. 
  Lee Huntington         : MR-EOM, pCC                                   
  Robert Izsak           : Overlap fitted RIJCOSX, COSX-SCS-MP3, EOM     
  Riya Kayal             : Wick's Theorem for AUTO-CI, AUTO-CI UHF-CCSDT 
  Emily Kempfer          : AUTO-CI, RHF CISDT and CCSDT                  
  Christian Kollmar      : KDIIS, OOCD, Brueckner-CCSD(T), CCSD density, CASPT2, CASPT2-K, improved NEVPT2 
  Axel Koslowski         : Symmetry handling                             
  Simone Kossmann        : meta-GGA functionals, TD-DFT gradient, OOMP2, (MP2 Hessian; deprecated post 5.0) 
  Lucas Lang             : DCDCAS                                        
  Marvin Lechner         : AUTO-CI (C++ implementation), FIC-MRCC        
  Spencer Leger          : CASSCF response                               
  Dagmar Lenk            : GEPOL surface, SMD, ORCA-2-JSON               
  Dimitrios Liakos       : Extrapolation schemes; Compound Job, initial MDCI parallelization 
  Dimitrios Manganas     : Further ROCIS development; embedding schemes. LFT, Crystal Embedding 
  Dimitrios Pantazis     : SARC Basis sets                               
  Anastasios Papadopoulos: AUTO-CI, single reference methods and gradients 
  Taras Petrenko         : pre 6.0 DFT Hessian and TD-DFT gradient, (ASA, deprecated), ECA, 1-Electron XAS/XES, NRVS 
  Peter Pinski           : DLPNO-MP2, DLPNO-MP2 Gradient                 
  Christoph Reimann      : Effective Core Potentials                     
  Marius Retegan         : Local ZFS, SOC                                
  Christoph Riplinger    : Optimizer, TS searches, QM/MM, DLPNO-CCSD(T), (RO)-DLPNO pert. Triples 
  Michael Roemelt        : Original ROCIS implementation                 
  Masaaki Saitow         : Open-shell DLPNO-CCSD energy and density      
  Barbara Sandhoefer     : DKH picture change effects                    
  Kantharuban Sivalingam : CASSCF convergence/infrastructure, NEVPT2 and variants, FIC-MRCI 
  Bernardo de Souza      : ESD, SOC TD-DFT                               
  Georgi L. Stoychev     : AutoAux, RI-MP2 NMR, DLPNO-MP2 response, X2C  
  Van Anh Tran           : RI-MP2 g-tensors                              
  Willem Van den Heuvel  : Paramagnetic NMR                              
  Zikuan Wang            : NOTCH, Electric field optimization            
  Frank Wennmohs         : Technical directorship and infrastructure     
  Hang Xu                : AUTO-CI-Response properties                   
                                                                         
[FACCTs GmbH]                                                            
  Markus Bursch, Miquel Garcia-Rates, Christoph Riplinger, Bernardo de Souza, Georgi L. Stoychev 
                                                                 
  APM, Basis sets (HGBS, AHGBS, def-TZVP (Ac-Lr), def2-XVPD (La-Lu)), CI-OPT, improved COSX, DLPNO-Multilevel,           
  DOCKER, DRACO, updates on ESD, GOAT, IRC, LR-CPCM, MBIS, meta-GGA TD-DFT gradient, ML-optimized integration grids, 
  MM, NACMEs, nearIR, NEB, NEB-TS, NL-DFT gradient (VV10), 2- and 3-layer-ONIOM, interface openCOSMO-RS, QMMM,   
  Crystal-QMMM, SF, symmetry and pop. for TD-DFT, r2SCAN hybrids, SOLVATOR                                   
                                                                         
[Other institutions]                                                     
  V. Asgeirsson          : NEB                                           
  Christoph Bannwarth    : sTDA-DFT, sTD-DFT, PBEh-3c, B97-3c, D3        
  Sebastian Ehlert       : rSCAN, r2SCAN, r2SCAN-3c, D4, dhf basis sets  
  Marvin Friede          : D4 for Fr, Ra, Ac-Lr                          
  Lars Goerigk           : TD-DFT with DH, B97 family of functionals     
  Stefan Grimme          : VdW corrections, initial TS optimization, DFT functionals, gCP, sTDA/sTD-DF 
  Waldemar Hujo          : DFT-NL                                        
  H. Jonsson             : NEB                                           
  Holger Kruse           : gCP                                           
  Marcel Mueller         : wB97X-3c, vDZP basis set                      
  Hagen Neugebauer       : wr2SCAN                                       
  Tobias Risthaus        : range-separated hybrid DFT                    
  Lukas Wittmann         : regularized MP2, r2SCAN double-hybrids, wr2SCAN        
                                                                         
We gratefully acknowledge several colleagues who have allowed us to      
interface, adapt or use parts of their codes:                            
  Ed Valeev, F. Pavosevic, A. Kumar             : LibInt (2-el integral package), F12 methods 
  Garnet Chan, S. Sharma, J. Yang, R. Olivares  : DMRG                   
  Ulf Ekstrom                                   : XCFun DFT Library      
  Mihaly Kallay                                 : mrcc  (arbitrary order and MRCC methods)
  Frank Weinhold                                : gennbo (NPA and NBO analysis)           
  Simon Mueller                                 : openCOSMO-RS                            
  Christopher J. Cramer and Donald G. Truhlar   : smd solvation model                     
  S Lehtola, MJT Oliveira, MAL Marques          : LibXC Library                           
  Liviu Ungur et al                             : ANISO software                          


 Your calculation uses the libint2 library for the computation of 2-el integrals
 For citations please refer to: http://libint.valeyev.net

 Your ORCA version has been built with support for libXC version: 6.2.2
 For citations please refer to: https://libxc.gitlab.io

 This ORCA versions uses:
   CBLAS   interface :  Fast vector & matrix operations
   LAPACKE interface :  Fast linear algebra routines
   SCALAPACK package :  Parallel linear algebra routines
   Shared memory     :  Shared parallel matrices
   BLAS/LAPACK       :  OpenBLAS 0.3.27  USE64BITINT DYNAMIC_ARCH NO_AFFINITY SkylakeX SINGLE_THREADED
        Core in use  :  SkylakeX
   Copyright (c) 2011-2014, The OpenBLAS Project


================================================================================

----- Orbital basis set information -----
Your calculation utilizes the basis: 6-31G*
   H-He, Li-Ne : W. J. Hehre, R. Ditchfield and J.A. Pople, J. Chem. Phys. 56, 2257 (1972).
                 Note: He and Ne are unpublished basis sets taken from the Gaussian program.
                 Note: Li and B from J. D. Dill and J. A. Pople, J. Chem. Phys. 62, 2921 (1975).
   Na - Ar     : M. M. Francl, W. J. Pietro, W. J. Hehre, J. S. Binkley, M. S. Gordon, 
                 D. J. DeFrees and J. A. Pople, J. Chem. Phys. 77, 3654 (1982).
   K - Zn      : V. A. Rassolov, J. A. Pople, M. A. Ratner, and T. L. Windus, J. Chem. Phys. 109, 1223 (1998).

================================================================================
                                        WARNINGS
                       Please study these warnings very carefully!
================================================================================


================================================================================
                                       INPUT FILE
================================================================================
NAME = frag.inp
|  1> !HF 6-31G* EnGrad
|  2> %pal nprocs 1 end
|  3> *xyz -1 1
|  4> O 21.31548000 47.19077000 40.87238000
|  5> H 20.96265000 46.41737000 40.67613000
|  6> H 22.11097000 46.98487000 41.16553000
|  7> O 21.78987000 47.25010000 37.48256000
|  8> H 21.14108000 47.76263000 37.20411000
|  9> H 21.67133000 47.22017000 38.34638000
| 10> O 21.99613000 48.36911000 43.54199000
| 11> H 21.97702000 49.24128000 43.53308000
| 12> *
| 13> 
| 14>                          ****END OF INPUT****
================================================================================

                     *******************************
                     * Energy+Gradient Calculation *
                     *******************************

---------------------------------
CARTESIAN COORDINATES (ANGSTROEM)
---------------------------------
  O     21.315480   47.190770   40.872380
  H     20.962650   46.417370   40.676130
  H     22.110970   46.984870   41.165530
  O     21.789870   47.250100   37.482560
  H     21.141080   47.762630   37.204110
  H     21.671330   47.220170   38.346380
  O     21.996130   48.369110   43.541990
  H     21.977020   49.241280   43.533080

----------------------------
CARTESIAN COORDINATES (A.U.)
----------------------------
  NO LB      ZA    FRAG     MASS         X           Y           Z
   0 O     8.0000    0    15.999   40.280420   89.177631   77.237605
   1 H     1.0000    0     1.008   39.613668   87.716117   76.866746
   2 H     1.0000    0     1.008   41.783678   88.788537   77.791578
   3 O     8.0000    0    15.999   41.176887   89.289749   70.831773
   4 H     1.0000    0     1.008   39.950851   90.258290   70.305579
   5 H     1.0000    0     1.008   40.952879   89.233189   72.464156
   6 O     8.0000    0    15.999   41.566662   91.404371   82.282436
   7 H     1.0000    0     1.008   41.530549   93.052534   82.265599

--------------------------------
INTERNAL COORDINATES (ANGSTROEM)
--------------------------------
 O      0   0   0     0.000000000000     0.00000000     0.00000000
 H      1   0   0     0.872439471482     0.00000000     0.00000000
 H      1   2   0     0.872431127712   103.59872274     0.00000000
 O      2   1   3     3.402443464071    84.02176965   259.51268005
 H      4   2   1     0.872439033687   105.22135928   277.23706635
 H      4   2   1     0.872429096775    13.88503522     2.34365367
 O      3   1   2     2.752611620770    97.66454154   232.09709776
 H      7   3   1     0.872424832923   119.65867956   292.19524676

---------------------------
INTERNAL COORDINATES (A.U.)
---------------------------
 O      0   0   0     0.000000000000     0.00000000     0.00000000
 H      1   0   0     1.648671669524     0.00000000     0.00000000
 H      1   2   0     1.648655902083   103.59872274     0.00000000
 O      2   1   3     6.429686333245    84.02176965   259.51268005
 H      4   2   1     1.648670842211   105.22135928   277.23706635
 H      4   2   1     1.648652064169    13.88503522     2.34365367
 O      3   1   2     5.201682116305    97.66454154   232.09709776
 H      7   3   1     1.648644006656   119.65867956   292.19524676

---------------------
BASIS SET INFORMATION
---------------------
There are 2 groups of distinct atoms

 Group   1 Type O   : 10s4p1d contracted to 3s2p1d pattern {631/31/1}
 Group   2 Type H   : 4s contracted to 2s pattern {31}

Atom   0O    basis set group =>   1
Atom   1H    basis set group =>   2
Atom   2H    basis set group =>   2
Atom   3O    basis set group =>   1
Atom   4H    basis set group =>   2
Atom   5H    basis set group =>   2
Atom   6O    basis set group =>   1
Atom   7H    basis set group =>   2
------------------------------------------------------------------------------
                             ORCA STARTUP CALCULATIONS
------------------------------------------------------------------------------
------------------------------------------------------------------------------
                   ___                                                        
                  /   \      - P O W E R E D   B Y -                         
                 /     \                                                     
                 |  |  |   _    _      __       _____    __    __             
                 |  |  |  | |  | |    /  \     |  _  \  |  |  /  |          
                  \  \/   | |  | |   /    \    | | | |  |  | /  /          
                 / \  \   | |__| |  /  /\  \   | |_| |  |  |/  /          
                |  |  |   |  __  | /  /__\  \  |    /   |      \           
                |  |  |   | |  | | |   __   |  |    \   |  |\   \          
                \     /   | |  | | |  |  |  |  | |\  \  |  | \   \       
                 \___/    |_|  |_| |__|  |__|  |_| \__\ |__|  \__/        
                                                                              
                      - O R C A' S   B I G   F R I E N D -                    
                                      &                                       
                       - I N T E G R A L  F E E D E R -                       
                                                                              
 v1 FN, 2020, v2 2021, v3 2022-2024                                           
------------------------------------------------------------------------------


----------------------
SHARK INTEGRAL PACKAGE
----------------------

Number of atoms                             ...      8
Number of basis functions                   ...     52
Number of shells                            ...     28
Maximum angular momentum                    ...      2
Integral batch strategy                     ... SHARK/LIBINT Hybrid
RI-J (if used) integral strategy            ... SPLIT-RIJ (Revised 2003 algorithm where possible)
Printlevel                                  ...      1
Contraction scheme used                     ... SEGMENTED contraction
Prescreening option                         ... SCHWARTZ
   Thresh                                   ... 2.500e-11
   Tcut                                     ... 2.500e-12
   Tpresel                                  ... 2.500e-12 
Coulomb Range Separation                    ... NOT USED
Exchange Range Separation                   ... NOT USED
Multipole approximations                    ... NOT USED
Finite Nucleus Model                        ... NOT USED
CABS basis                                  ... NOT available
Auxiliary Coulomb fitting basis             ... NOT available
Auxiliary J/K fitting basis                 ... NOT available
Auxiliary Correlation fitting basis         ... NOT available
Auxiliary 'external' fitting basis          ... NOT available

Checking pre-screening integrals            ... done (  0.0 sec) Dimension = 28
Check shell pair data                       ... done (  0.0 sec)
Shell pair information
Shell pair cut-off parameter TPreSel        ...   2.5e-12
Total number of shell pairs                 ...       406
Shell pairs after pre-screening             ...       351
Total number of primitive shell pairs       ...      2223
Primitive shell pairs kept                  ...      1324
          la=0 lb=0:    163 shell pairs
          la=1 lb=0:     97 shell pairs
          la=1 lb=1:     20 shell pairs
          la=2 lb=0:     50 shell pairs
          la=2 lb=1:     16 shell pairs
          la=2 lb=2:      5 shell pairs

Calculating one electron integrals          ... done (  0.0 sec)
Calculating Nuclear repulsion               ... done (  0.0 sec) ENN=     64.095284316759 Eh

Diagonalization of the overlap matrix:
Smallest eigenvalue                        ... 4.531e-02
Time for diagonalization                   ...    0.000 sec
Threshold for overlap eigenvalues          ... 1.000e-07
Number of eigenvalues below threshold      ... 0
Time for construction of square roots      ...    0.003 sec
Total time needed                          ...    0.006 sec

-------------------
DFT GRID GENERATION
-------------------

General Integration Accuracy     IntAcc      ... 4.388
Radial Grid Type                 RadialGrid  ... OptM3 with GC (2021)
Angular Grid (max. ang.)         AngularGrid ... 4 (Lebedev-302)
Angular grid pruning method      GridPruning ... 4 (adaptive)
Weight generation scheme         WeightScheme... mBecke (2022)
Basis function cutoff            BFCut       ... 1.0000e-11
Integration weight cutoff        WCut        ... 1.0000e-14
Partially contracted basis set               ... off
Rotationally invariant grid construction     ... off
Angular grids for H and He will be reduced by one unit

Total number of grid points                  ...    34874
Total number of batches                      ...      548
Average number of points per batch           ...       63
Average number of grid points per atom       ...     4359
Initializing property integral containers    ... done (  0.0 sec)

SHARK setup successfully completed in   0.3 seconds

Maximum memory used throughout the entire STARTUP-calculation: 12.4 MB
-------------------------------------------------------------------------------
                                 ORCA GUESS
                   Start orbitals & Density for SCF / CASSCF
-------------------------------------------------------------------------------

------------
SCF SETTINGS
------------
Hamiltonian:
 Ab initio Hamiltonian  Method          .... Hartree-Fock(GTOs)


General Settings:
 Integral files         IntName         .... frag
 Hartree-Fock type      HFTyp           .... RHF
 Total Charge           Charge          ....   -1
 Multiplicity           Mult            ....    1
 Number of Electrons    NEL             ....   30
 Basis Dimension        Dim             ....   52
 Nuclear Repulsion      ENuc            ....     64.0952843168 Eh

Convergence Acceleration:
 AO-DIIS                CNVDIIS         .... on
   Start iteration      DIISMaxIt       ....    12
   Startup error        DIISStart       ....  0.200000
   # of expansion vecs  DIISMaxEq       ....     5
   Bias factor          DIISBfac        ....   1.050
   Max. coefficient     DIISMaxC        ....  10.000
 MO-DIIS                CNVKDIIS        .... off
 Trust-Rad. Augm. Hess. CNVTRAH         .... auto
   Auto Start mean grad. ratio tolernc. ....  1.125000
   Auto Start start iteration           ....    50
   Auto Start num. interpolation iter.  ....    10
   Max. Number of Micro iterations      ....    24
   Max. Number of Macro iterations      .... Maxiter - #DIIS iter
   Number of Davidson start vectors     ....     2
   Converg. threshold    (grad. norm)   ....   1.000e-05
   Grad. Scal. Fac. for Micro threshold ....   0.100
   Minimum threshold for Micro iter.    ....   1.000e-02
   NR start threshold (gradient norm)   ....   1.000e-04
   Initial trust radius                 ....   0.400
   Minimum AH scaling param. (alpha)    ....   1.000
   Maximum AH scaling param. (alpha)    .... 1000.000
   Quad. conv. algorithm                .... NR
   White noise on init. David. guess    .... on
   Maximum white noise                  ....   0.010
   Pseudo random numbers                .... off
   Inactive MOs                         .... canonical
   Orbital update algorithm             .... Taylor
   Preconditioner                       .... Diag
   Full preconditioner red. dimension   ....   250
 SOSCF                  CNVSOSCF        .... on
   Start iteration      SOSCFMaxIt      ....   150
   Startup grad/error   SOSCFStart      ....  0.003300
   Hessian update       SOSCFHessUp     .... L-BFGS
 Level Shifting         CNVShift        .... on
   Level shift para.    LevelShift      ....    0.2500
   Turn off err/grad.   ShiftErr        ....    0.0010
 Zerner damping         CNVZerner       .... off
 Static damping         CNVDamp         .... on
   Fraction old density DampFac         ....    0.7000
   Max. Damping (<1)    DampMax         ....    0.9800
   Min. Damping (>=0)   DampMin         ....    0.0000
   Turn off err/grad.   DampErr         ....    0.1000

SCF Procedure:
 Maximum # iterations   MaxIter         ....   125
 SCF integral mode      SCFMode         .... Direct
   Integral package                     .... SHARK and LIBINT hybrid scheme
 Reset frequency        DirectResetFreq ....    20
 Integral Threshold     Thresh          ....  2.500e-11 Eh
 Primitive CutOff       TCut            ....  2.500e-12 Eh

Convergence Tolerance:
 Convergence Check Mode ConvCheckMode   .... Total+1el-Energy
 Convergence forced     ConvForced      .... 0
 Energy Change          TolE            ....  1.000e-08 Eh
 1-El. energy change                    ....  1.000e-05 Eh
 Orbital Gradient       TolG            ....  1.000e-05
 Orbital Rotation angle TolX            ....  1.000e-05
 DIIS Error             TolErr          ....  5.000e-07

------------------------------
INITIAL GUESS: MODEL POTENTIAL
------------------------------
Loading Hartree-Fock densities                     ... done
Calculating cut-offs                               ... done
Initializing the effective Hamiltonian             ... done
Setting up the integral package (SHARK)            ... done
Starting the Coulomb interaction                   ... done (   0.0 sec)
Making the grid                                    ... done (   0.0 sec)
Mapping shells                                     ... done
Starting the XC term evaluation                    ... done (   0.0 sec)
Transforming the Hamiltonian                       ... done (   0.0 sec)
Diagonalizing the Hamiltonian                      ... done (   0.0 sec)
Back transforming the eigenvectors                 ... done (   0.0 sec)
Now organizing SCF variables                       ... done
                      ------------------
                      INITIAL GUESS DONE (   0.1 sec)
                      ------------------
             **** ENERGY FILE WAS UPDATED (frag.en.tmp) ****
Finished Guess after   0.2 sec
Maximum memory used throughout the entire GUESS-calculation: 5.4 MB

-------------------------------------------------------------------------------------------
                                      ORCA LEAN-SCF
                              memory conserving SCF solver
-------------------------------------------------------------------------------------------

----------------------------------------D-I-I-S--------------------------------------------
Iteration    Energy (Eh)           Delta-E    RMSDP     MaxDP     DIISErr   Damp  Time(sec)
-------------------------------------------------------------------------------------------
               ***  Starting incremental Fock matrix formation  ***
    1    -226.8919500338801640     0.00e+00  9.55e-03  1.08e-01  4.77e-01  0.700   0.1
    2    -227.0581773436928188    -1.66e-01  6.62e-03  7.36e-02  2.87e-01  0.700   0.1
                               ***Turning on AO-DIIS***
    3    -227.1469563338929447    -8.88e-02  2.63e-03  2.98e-02  1.57e-01  0.700   0.1
    4    -227.2003443982853241    -5.34e-02  1.58e-03  1.91e-02  1.07e-01  0.700   0.1
    5    -227.2355938216377922    -3.52e-02  1.10e-03  1.38e-02  7.66e-02  0.700   0.1
    6    -227.2596785853638153    -2.41e-02  2.69e-03  3.44e-02  5.54e-02  0.000   0.1
    7    -227.3143547116544028    -5.47e-02  2.21e-04  2.54e-03  3.53e-03  0.000   0.1
                              *** Initializing SOSCF ***
---------------------------------------S-O-S-C-F--------------------------------------
Iteration    Energy (Eh)           Delta-E    RMSDP     MaxDP     MaxGrad    Time(sec)
--------------------------------------------------------------------------------------
    8    -227.3143888957576451    -3.42e-05  1.65e-04  1.98e-03  1.72e-03     0.1
               *** Restarting incremental Fock matrix formation ***
    9    -227.3143986532565464    -9.76e-06  7.15e-05  9.46e-04  3.93e-04     0.1
   10    -227.3143998071593614    -1.15e-06  4.82e-05  5.98e-04  1.42e-04     0.1
   11    -227.3144000577544261    -2.51e-07  5.12e-06  4.92e-05  3.75e-05     0.1
   12    -227.3144000689891868    -1.12e-08  1.94e-06  2.70e-05  8.53e-06     0.1
   13    -227.3144000700889933    -1.10e-09  5.78e-07  8.56e-06  2.38e-06     0.1
                 **** Energy Check signals convergence ****

               *****************************************************
               *                     SUCCESS                       *
               *           SCF CONVERGED AFTER  13 CYCLES          *
               *****************************************************

             **** ENERGY FILE WAS UPDATED (frag.en.tmp) ****

----------------
TOTAL SCF ENERGY
----------------

Total Energy       :       -227.31440007008899 Eh           -6185.53929 eV

Components:
Nuclear Repulsion  :         64.09528431675909 Eh            1744.12136 eV
Electronic Energy  :       -291.40968438684808 Eh           -7929.66065 eV
One Electron Energy:       -447.92063290846846 Eh          -12188.54007 eV
Two Electron Energy:        156.51094852162038 Eh            4258.87943 eV

Virial components:
Potential Energy   :       -455.73762735641913 Eh          -12401.25131 eV
Kinetic Energy     :        228.42322728633016 Eh            6215.71202 eV
Virial Ratio       :          1.99514573351662

---------------
SCF CONVERGENCE
---------------

  Last Energy change         ...    1.0998e-09  Tolerance :   1.0000e-08
  Last MAX-Density change    ...    8.5557e-06  Tolerance :   1.0000e-07
  Last RMS-Density change    ...    5.7781e-07  Tolerance :   5.0000e-09
  Last DIIS Error            ...    1.7216e-03  Tolerance :   5.0000e-07
  Last Orbital Gradient      ...    2.3770e-06  Tolerance :   1.0000e-05
  Last Orbital Rotation      ...    4.7999e-06  Tolerance :   1.0000e-05


----------------
ORBITAL ENERGIES
----------------

  NO   OCC          E(Eh)            E(eV) 
   0   2.0000     -20.434068      -556.0393 
   1   2.0000     -20.380638      -554.5854 
   2   2.0000     -20.075800      -546.2903 
   3   2.0000      -1.287683       -35.0396 
   4   2.0000      -1.232589       -33.5405 
   5   2.0000      -0.856128       -23.2964 
   6   2.0000      -0.650822       -17.7098 
   7   2.0000      -0.593704       -16.1555 
   8   2.0000      -0.488398       -13.2900 
   9   2.0000      -0.429829       -11.6962 
  10   2.0000      -0.403134       -10.9698 
  11   2.0000      -0.343025        -9.3342 
  12   2.0000      -0.196013        -5.3338 
  13   2.0000      -0.040227        -1.0946 
  14   2.0000      -0.037309        -1.0152 
  15   0.0000       0.332160         9.0385 
  16   0.0000       0.384330        10.4582 
  17   0.0000       0.491307        13.3691 
  18   0.0000       0.499234        13.5849 
  19   0.0000       0.575985        15.6734 
  20   0.0000       1.155616        31.4459 
  21   0.0000       1.214309        33.0430 
  22   0.0000       1.268652        34.5218 
  23   0.0000       1.277799        34.7707 
  24   0.0000       1.330237        36.1976 
  25   0.0000       1.341071        36.4924 
*Only the first 10 virtual orbitals were printed.

                    ********************************
                    * MULLIKEN POPULATION ANALYSIS *
                    ********************************

-----------------------
MULLIKEN ATOMIC CHARGES
-----------------------
   0 O :   -0.858536
   1 H :    0.410280
   2 H :    0.447009
   3 O :   -0.919853
   4 H :    0.435974
   5 H :    0.458709
   6 O :   -1.268348
   7 H :    0.294764
Sum of atomic charges:   -1.0000000

--------------------------------
MULLIKEN REDUCED ORBITAL CHARGES
--------------------------------
  0 O s       :     3.849546  s :     3.849546
      pz      :     1.891964  p :     4.974557
      px      :     1.500711
      py      :     1.581882
      dz2     :     0.004959  d :     0.034433
      dxz     :     0.002224
      dyz     :     0.004913
      dx2y2   :     0.012939
      dxy     :     0.009399

  1 H s       :     0.589720  s :     0.589720

  2 H s       :     0.552991  s :     0.552991

  3 O s       :     3.846224  s :     3.846224
      pz      :     1.484178  p :     5.041049
      px      :     1.729850
      py      :     1.827021
      dz2     :     0.014665  d :     0.032580
      dxz     :     0.004340
      dyz     :     0.001101
      dx2y2   :     0.002609
      dxy     :     0.009865

  4 H s       :     0.564026  s :     0.564026

  5 H s       :     0.541291  s :     0.541291

  6 O s       :     3.918459  s :     3.918459
      pz      :     1.979152  p :     5.331939
      px      :     1.996685
      py      :     1.356103
      dz2     :     0.003673  d :     0.017950
      dxz     :     0.000007
      dyz     :     0.001651
      dx2y2   :     0.010830
      dxy     :     0.001788

  7 H s       :     0.705236  s :     0.705236



                     *******************************
                     * LOEWDIN POPULATION ANALYSIS *
                     *******************************

----------------------
LOEWDIN ATOMIC CHARGES
----------------------
   0 O :   -0.610173
   1 H :    0.292702
   2 H :    0.313696
   3 O :   -0.641275
   4 H :    0.309221
   5 H :    0.312242
   6 O :   -1.175870
   7 H :    0.199457

-------------------------------
LOEWDIN REDUCED ORBITAL CHARGES
-------------------------------
  0 O s       :     3.561724  s :     3.561724
      pz      :     1.896690  p :     5.004719
      px      :     1.500779
      py      :     1.607249
      dz2     :     0.005665  d :     0.043731
      dxz     :     0.003217
      dyz     :     0.005689
      dx2y2   :     0.016887
      dxy     :     0.012272

  1 H s       :     0.707298  s :     0.707298

  2 H s       :     0.686304  s :     0.686304

  3 O s       :     3.551592  s :     3.551592
      pz      :     1.477661  p :     5.049060
      px      :     1.739693
      py      :     1.831705
      dz2     :     0.018878  d :     0.040623
      dxz     :     0.005420
      dyz     :     0.001574
      dx2y2   :     0.002710
      dxy     :     0.012042

  4 H s       :     0.690779  s :     0.690779

  5 H s       :     0.687758  s :     0.687758

  6 O s       :     3.742308  s :     3.742308
      pz      :     1.980812  p :     5.408782
      px      :     1.997048
      py      :     1.430922
      dz2     :     0.005421  d :     0.024780
      dxz     :     0.000011
      dyz     :     0.001654
      dx2y2   :     0.015897
      dxy     :     0.001797

  7 H s       :     0.800543  s :     0.800543



                      *****************************
                      * MAYER POPULATION ANALYSIS *
                      *****************************

  NA   - Mulliken gross atomic population
  ZA   - Total nuclear charge
  QA   - Mulliken gross atomic charge
  VA   - Mayer's total valence
  BVA  - Mayer's bonded valence
  FA   - Mayer's free valence

  ATOM       NA         ZA         QA         VA         BVA        FA
  0 O      8.8585     8.0000    -0.8585     1.5957     1.5957    -0.0000
  1 H      0.5897     1.0000     0.4103     0.7892     0.7892    -0.0000
  2 H      0.5530     1.0000     0.4470     0.7935     0.7935    -0.0000
  3 O      8.9199     8.0000    -0.9199     1.5192     1.5192    -0.0000
  4 H      0.5640     1.0000     0.4360     0.7740     0.7740    -0.0000
  5 H      0.5413     1.0000     0.4587     0.7835     0.7835     0.0000
  6 O      9.2683     8.0000    -1.2683     0.9061     0.9061    -0.0000
  7 H      0.7052     1.0000     0.2948     0.8555     0.8555    -0.0000

  Mayer bond orders larger than 0.100000
B(  0-O ,  1-H ) :   0.7939 B(  0-O ,  2-H ) :   0.7522 B(  3-O ,  4-H ) :   0.7846 
B(  3-O ,  5-H ) :   0.7366 B(  6-O ,  7-H ) :   0.8540 

-------
TIMINGS
-------

Total SCF time: 0 days 0 hours 0 min 1 sec 

Total time                  ....       1.213 sec
Sum of individual times     ....       1.107 sec  ( 91.3%)

SCF preparation             ....       0.079 sec  (  6.5%)
Fock matrix formation       ....       0.665 sec  ( 54.8%)
  Startup                   ....       0.032 sec  (  4.9% of F)
  Coulomb+Exchange Fock     ....       0.560 sec  ( 84.1% of F)
Diagonalization             ....       0.000 sec  (  0.0%)
Density matrix formation    ....       0.103 sec  (  8.5%)
Total Energy calculation    ....       0.028 sec  (  2.3%)
Population analysis         ....       0.020 sec  (  1.6%)
Orbital Transformation      ....       0.022 sec  (  1.8%)
Orbital Orthonormalization  ....       0.000 sec  (  0.0%)
DIIS solution               ....       0.122 sec  ( 10.1%)
SOSCF solution              ....       0.069 sec  (  5.7%)
Finished LeanSCF after   1.2 sec

Maximum memory used throughout the entire LEANSCF-calculation: 7.6 MB

-------------------------   --------------------
FINAL SINGLE POINT ENERGY      -227.314400070089
-------------------------   --------------------

------------------------------------------------------------------------------
                         ORCA SCF GRADIENT CALCULATION
------------------------------------------------------------------------------

Nuc. rep. gradient        (SHARK) ... done (  0.0 sec)
HCore & Overlap gradient  (SHARK) ... done (  0.0 sec)
Two-electron gradient     (SHARK) ... done (  0.3 sec)

------------------
CARTESIAN GRADIENT
------------------

   1   O   :    0.054792846   -0.105299072    0.040685401
   2   H   :    0.052961619    0.096776149    0.022881997
   3   H   :   -0.101841859    0.005848659   -0.058506220
   4   O   :   -0.088028559    0.058580346    0.074186170
   5   H   :    0.080247436   -0.065744659    0.041695018
   6   H   :    0.007477537    0.006122477   -0.119986561
   7   O   :   -0.008415664    0.122147338   -0.004262746
   8   H   :    0.002806644   -0.118431239    0.003306940

Difference to translation invariance:
           :   -0.0000000000   -0.0000000001   -0.0000000000

Difference to rotation invariance:
           :    0.0000001698   -0.0000002447   -0.0000010905

Norm of the Cartesian gradient     ...    0.3391123888
RMS gradient                       ...    0.0692210265
MAX gradient                       ...    0.1221473383

-------
TIMINGS
-------

Total SCF gradient time     ....        0.276 sec

Densities                   ....       0.000 sec  (  0.0%)
One electron gradient       ....       0.020 sec  (  7.4%)
Two electron gradient       ....       0.256 sec  ( 92.5%)

Maximum memory used throughout the entire SCFGRAD-calculation: 13.4 MB

------------------------------------------------------------------------------
                              ORCA PROPERTY CALCULATIONS
------------------------------------------------------------------------------

GBWName                                 ... frag.gbw
Number of atoms                         ...      8
Number of basis functions               ...     52
Max core memory                         ...   1024 MB

Electric properties:
Dipole moment                           ... YES
Quadrupole moment                       ...  NO
Static polarizability (Dipole/Dipole)   ...  NO
Static polarizability (Dipole/Quad.)    ...  NO
Static polarizability (Quad./Quad.)     ...  NO
Static polarizability (Velocity)        ...  NO

Atomic electric properties:
Dipole moment                           ...  NO
Quadrupole moment                       ...  NO
Static polarizability                   ...  NO

Choice of electric origin               ... Center of mass
Position of electric origin             ...    40.985024    89.943232    76.703620

General magnetic properties:
Magnetizability                         ...  NO

EPR properties:
g-Tensor (aka g-matrix)                 ...  NO
Zero-Field splitting spin-orbit         ...  NO
Zero-field splitting spin-spin          ...  NO
Hyperfine couplings                     ...  NO (   0 nuclei)
Quadrupole couplings                    ...  NO (   0 nuclei)
Contact density                         ...  NO (   0 nuclei)

NMR properties:
Chemical shifts                         ...  NO (   0 nuclei)
Spin-rotation constants                 ...  NO (   0 nuclei)
Spin-spin couplings                     ...  NO (   0 nuclei,    0 pairs)

Choice of magnetic origin               ... GIAO
Position of magnetic origin             ...     0.000000     0.000000     0.000000

Properties with geometric perturbations:
SCF Hessian                             ...  NO
IR spectrum                             ...  NO
VCD spectrum                            ...  NO
X-ray spectroscopy properties:
SCF XES/XAS/RIXS spectra                ...  NO


-------------
DIPOLE MOMENT
-------------

Method             : SCF
Type of density    : Electron Density
Multiplicity       :   1
Irrep              :   0
Energy             :  -227.3144000700889933 Eh
Relativity type    : 
Basis              : AO
                                X                 Y                 Z
Electronic contribution:     -0.275322438      -0.926155054      -2.795322241
Nuclear contribution   :     -0.542340524      -0.331056022      -1.896802233
                        -----------------------------------------
Total Dipole Moment    :     -0.817662963      -1.257211075      -4.692124474
                        -----------------------------------------
Magnitude (a.u.)       :      4.925970411
Magnitude (Debye)      :     12.520821738



--------------------
Rotational spectrum 
--------------------
 
Rotational constants in cm-1:             1.286121             0.050612             0.049126 
Rotational constants in MHz :         38556.930107          1517.296103          1472.764353 

Dipole components along the rotational axes: 
x,y,z [a.u.] :    -4.867589    -0.686561     0.316855 
x,y,z [Debye]:   -12.372428    -1.745100     0.805382 

 

Dipole moment calculation done in   0.0 sec 

Maximum memory used throughout the entire PROP-calculation: 2.1 MB

--------------------------------
SUGGESTED CITATIONS FOR THIS RUN
--------------------------------

Below you find a list of papers that are relevant to this ORCA run
We neither can nor want to force you to cite these papers, but we appreciate if you do
You receive ORCA, which is the product of decades of hard work by many enthusiastic individuals, for free
The only thing we kindly ask in return is that you cite our papers,
We deeply appreciate it, if you show your appreciation for ORCA by not just citing the generic ORCA reference.

Please note that relegating all ORCA citations to the supporting information does *not* help us.
SI sections are not indexed - citations you put there will not count into any citation statistics
But we need these citations in order to attract the funding resources that allow us to do what we are doing

Therefore, if you are a happy ORCA user, please consider citing a few of the papers listed below in the main body of your paper

In addition to the list printed below, the program has created the file frag.bibtex that contains the list in bibtex format
You can import this file easily into all common literature databanks and citation aid programs


List of essential papers. We consider these as the minimum necessary citations

  1. Neese,F.
     Software update: the ORCA program system, version 5.0
     WIRES Comput. Molec. Sci., 2022 12(1)e1606
     doi.org/10.1002/wcms.1606

List of papers to cite with high priority. The work reported in these papers was absolutely
necessary for this run to complete.
Our perspective: the developers of density functionals and basis sets usually get cited in chemistry papers
Good! But without the algorithms to do something with them, the functionals or basis sets would not do anything.
Hence, in our opinion, the algorithm design and method developments papers are equally worthy of getting cited

  1. Neese,F.
     The SHARK Integral Generation and Digestion System
     J. Comp. Chem., 2022  1-16
     doi.org/10.1002/jcc.26942

List of suggested additional citations. These are papers that are important in the 'surrounding' of 
of this run, or papers that preceded the highly important papers. If you like your results we are grateful for a citation.

  1. Neese,F.
     The ORCA program system
     WIRES Comput. Molec. Sci., 2012 2(1)73-78
     doi.org/10.1002/wcms.81
  2. Neese,F.
     Software update: the ORCA program system, version 4.0
     WIRES Comput. Molec. Sci., 2018 8(1)1-6
     doi.org/10.1002/wcms.1327
  3. Neese,F.; Wennmohs,F.; Becker,U.; Riplinger,C.
     The ORCA quantum chemistry program package
     J. Chem. Phys., 2020 152 Art. No. L224108
     doi.org/10.1063/5.0004608

List of optional additional citations

  1. Neese,F.
     Approximate second-order SCF convergence for spin unrestricted wavefunctions
     Chem. Phys. Lett., 2000 325(1-3)93-98
     doi.org/10.1016/s0009-2614(00)00662-x

Timings for individual modules:

Sum of individual times          ...        2.146 sec (=   0.036 min)
Startup calculation              ...        0.311 sec (=   0.005 min)  14.5 %
SCF iterations                   ...        1.448 sec (=   0.024 min)  67.5 %
Property calculations            ...        0.055 sec (=   0.001 min)   2.6 %
SCF Gradient evaluation          ...        0.332 sec (=   0.006 min)  15.5 %
                             ****ORCA TERMINATED NORMALLY****
TOTAL RUN TIME: 0 days 0 hours 0 minutes 2 seconds 376 msec
