
                                 *****************
                                 * O   R   C   A *
                                 *****************

                                            #,                                       
                                            ###                                      
                                            ####                                     
                                            #####                                    
                                            ######                                   
                                           ########,                                 
                                     ,,################,,,,,                         
                               ,,#################################,,                 
                          ,,##########################################,,             
                       ,#########################################, ''#####,          
                    ,#############################################,,   '####,        
                  ,##################################################,,,,####,       
                ,###########''''           ''''###############################       
              ,#####''   ,,,,##########,,,,          '''####'''          '####       
            ,##' ,,,,###########################,,,                        '##       
           ' ,,###''''                  '''############,,,                           
         ,,##''                                '''############,,,,        ,,,,,,###''
      ,#''                                            '''#######################'''  
     '                                                          ''''####''''         
             ,#######,   #######,   ,#######,      ##                                
            ,#'     '#,  ##    ##  ,#'     '#,    #''#        ,####,   ,####,        
            ##       ##  ##   ,#'  ##            #'  '#       #'       #'  '#        
            ##       ##  #######   ##           ,######,      #####,   #    #        
            '#,     ,#'  ##    ##  '#,     ,#' ,#      #,     #,   #   #,  ,#        
             '#######'   ##     ##  '#######'  #'      '#     '####' # '####'        



                #########################################################
                #                        -***-                          #
                #          Department of theory and spectroscopy        #
                #                                                       #
                #                      Frank Neese                      #
                #                                                       #
                #     Directorship, Architecture, Infrastructure        #
                #                    SHARK, DRIVERS                     #
                #        Core code/Algorithms in most modules           #
                #                                                       #
                #        Max Planck Institute fuer Kohlenforschung      #
                #                Kaiser Wilhelm Platz 1                 #
                #                 D-45470 Muelheim/Ruhr                 #
                #                      Germany                          #
                #                                                       #
                #                  All rights reserved                  #
                #                        -***-                          #
                #########################################################


                         Program Version 6.0.1  -  RELEASE   -


 With contributions from (in alphabetic order):
[Max-Planck-Institut fuer Kohlenforschung]                               
  Daniel Aravena         : Magnetic Suceptibility                        
  Michael Atanasov       : Ab Initio Ligand Field Theory (pilot matlab implementation)
  Alexander A. Auer      : GIAO ZORA, VPT2 properties, NMR spectrum      
  Ute Becker             : All parallelization in ORCA, NUMFREQ, NUMCALC 
  Giovanni Bistoni       : ED, misc. LED, open-shell LED, HFLD           
  Martin Brehm           : Molecular dynamics                            
  Dmytro Bykov           : pre 5.0 version of the SCF Hessian            
  Marcos Casanova-Páez   : Triplet and SCS-CIS(D). UHF-(DLPNO)-IP/EA/STEOM-CCSD. UHF-CVS-IP/STEOM-CCSD   
  Vijay G. Chilkuri      : MRCI spin determinant printing, contributions to CSF-ICE 
  Pauline Colinet        : FMM embedding                                 
  Dipayan Datta          : RHF DLPNO-CCSD density                        
  Achintya Kumar Dutta   : EOM-CC, STEOM-CC                              
  Nicolas Foglia         : Exact transition moments, OPA infrastructure, MCD improvements    
  Dmitry Ganyushin       : Spin-Orbit,Spin-Spin,Magnetic field MRCI      
  Miquel Garcia-Rates    : C-PCM and meta-GGA Hessian, CCSD/C-PCM, Gaussian charge scheme 
  Tiago L. C. Gouveia    : GS-ROHF, GS-ROCIS                             
  Yang Guo               : DLPNO-NEVPT2, F12-NEVPT2, CIM, IAO-localization        
  Andreas Hansen         : Spin unrestricted coupled pair/coupled cluster methods 
  Ingolf Harden          : AUTO-CI MPn and infrastructure                
  Benjamin Helmich-Paris : MC-RPA, TRAH-(SCF,CASSCF), AVAS, COSX integrals, SCF dyn. polar. 
  Lee Huntington         : MR-EOM, pCC                                   
  Robert Izsak           : Overlap fitted RIJCOSX, COSX-SCS-MP3, EOM     
  Riya Kayal             : Wick's Theorem for AUTO-CI, AUTO-CI UHF-CCSDT 
  Emily Kempfer          : AUTO-CI, RHF CISDT and CCSDT                  
  Christian Kollmar      : KDIIS, OOCD, Brueckner-CCSD(T), CCSD density, CASPT2, CASPT2-K, improved NEVPT2 
  Axel Koslowski         : Symmetry handling                             
  Simone Kossmann        : meta-GGA functionals, TD-DFT gradient, OOMP2, (MP2 Hessian; deprecated post 5.0) 
  Lucas Lang             : DCDCAS                                        
  Marvin Lechner         : AUTO-CI (C++ implementation), FIC-MRCC        
  Spencer Leger          : CASSCF response                               
  Dagmar Lenk            : GEPOL surface, SMD, ORCA-2-JSON               
  Dimitrios Liakos       : Extrapolation schemes; Compound Job, initial MDCI parallelization 
  Dimitrios Manganas     : Further ROCIS development; embedding schemes. LFT, Crystal Embedding 
  Dimitrios Pantazis     : SARC Basis sets                               
  Anastasios Papadopoulos: AUTO-CI, single reference methods and gradients 
  Taras Petrenko         : pre 6.0 DFT Hessian and TD-DFT gradient, (ASA, deprecated), ECA, 1-Electron XAS/XES, NRVS 
  Peter Pinski           : DLPNO-MP2, DLPNO-MP2 Gradient                 
  Christoph Reimann      : Effective Core Potentials                     
  Marius Retegan         : Local ZFS, SOC                                
  Christoph Riplinger    : Optimizer, TS searches, QM/MM, DLPNO-CCSD(T), (RO)-DLPNO pert. Triples 
  Michael Roemelt        : Original ROCIS implementation                 
  Masaaki Saitow         : Open-shell DLPNO-CCSD energy and density      
  Barbara Sandhoefer     : DKH picture change effects                    
  Kantharuban Sivalingam : CASSCF convergence/infrastructure, NEVPT2 and variants, FIC-MRCI 
  Bernardo de Souza      : ESD, SOC TD-DFT                               
  Georgi L. Stoychev     : AutoAux, RI-MP2 NMR, DLPNO-MP2 response, X2C  
  Van Anh Tran           : RI-MP2 g-tensors                              
  Willem Van den Heuvel  : Paramagnetic NMR                              
  Zikuan Wang            : NOTCH, Electric field optimization            
  Frank Wennmohs         : Technical directorship and infrastructure     
  Hang Xu                : AUTO-CI-Response properties                   
                                                                         
[FACCTs GmbH]                                                            
  Markus Bursch, Miquel Garcia-Rates, Christoph Riplinger, Bernardo de Souza, Georgi L. Stoychev 
                                                                 
  APM, Basis sets (HGBS, AHGBS, def-TZVP (Ac-Lr), def2-XVPD (La-Lu)), CI-OPT, improved COSX, DLPNO-Multilevel,           
  DOCKER, DRACO, updates on ESD, GOAT, IRC, LR-CPCM, MBIS, meta-GGA TD-DFT gradient, ML-optimized integration grids, 
  MM, NACMEs, nearIR, NEB, NEB-TS, NL-DFT gradient (VV10), 2- and 3-layer-ONIOM, interface openCOSMO-RS, QMMM,   
  Crystal-QMMM, SF, symmetry and pop. for TD-DFT, r2SCAN hybrids, SOLVATOR                                   
                                                                         
[Other institutions]                                                     
  V. Asgeirsson          : NEB                                           
  Christoph Bannwarth    : sTDA-DFT, sTD-DFT, PBEh-3c, B97-3c, D3        
  Sebastian Ehlert       : rSCAN, r2SCAN, r2SCAN-3c, D4, dhf basis sets  
  Marvin Friede          : D4 for Fr, Ra, Ac-Lr                          
  Lars Goerigk           : TD-DFT with DH, B97 family of functionals     
  Stefan Grimme          : VdW corrections, initial TS optimization, DFT functionals, gCP, sTDA/sTD-DF 
  Waldemar Hujo          : DFT-NL                                        
  H. Jonsson             : NEB                                           
  Holger Kruse           : gCP                                           
  Marcel Mueller         : wB97X-3c, vDZP basis set                      
  Hagen Neugebauer       : wr2SCAN                                       
  Tobias Risthaus        : range-separated hybrid DFT                    
  Lukas Wittmann         : regularized MP2, r2SCAN double-hybrids, wr2SCAN        
                                                                         
We gratefully acknowledge several colleagues who have allowed us to      
interface, adapt or use parts of their codes:                            
  Ed Valeev, F. Pavosevic, A. Kumar             : LibInt (2-el integral package), F12 methods 
  Garnet Chan, S. Sharma, J. Yang, R. Olivares  : DMRG                   
  Ulf Ekstrom                                   : XCFun DFT Library      
  Mihaly Kallay                                 : mrcc  (arbitrary order and MRCC methods)
  Frank Weinhold                                : gennbo (NPA and NBO analysis)           
  Simon Mueller                                 : openCOSMO-RS                            
  Christopher J. Cramer and Donald G. Truhlar   : smd solvation model                     
  S Lehtola, MJT Oliveira, MAL Marques          : LibXC Library                           
  Liviu Ungur et al                             : ANISO software                          


 Your calculation uses the libint2 library for the computation of 2-el integrals
 For citations please refer to: http://libint.valeyev.net

 Your ORCA version has been built with support for libXC version: 6.2.2
 For citations please refer to: https://libxc.gitlab.io

 This ORCA versions uses:
   CBLAS   interface :  Fast vector & matrix operations
   LAPACKE interface :  Fast linear algebra routines
   SCALAPACK package :  Parallel linear algebra routines
   Shared memory     :  Shared parallel matrices
   BLAS/LAPACK       :  OpenBLAS 0.3.27  USE64BITINT DYNAMIC_ARCH NO_AFFINITY SkylakeX SINGLE_THREADED
        Core in use  :  SkylakeX
   Copyright (c) 2011-2014, The OpenBLAS Project


================================================================================

----- Orbital basis set information -----
Your calculation utilizes the basis: 6-31G*
   H-He, Li-Ne : W. J. Hehre, R. Ditchfield and J.A. Pople, J. Chem. Phys. 56, 2257 (1972).
                 Note: He and Ne are unpublished basis sets taken from the Gaussian program.
                 Note: Li and B from J. D. Dill and J. A. Pople, J. Chem. Phys. 62, 2921 (1975).
   Na - Ar     : M. M. Francl, W. J. Pietro, W. J. Hehre, J. S. Binkley, M. S. Gordon, 
                 D. J. DeFrees and J. A. Pople, J. Chem. Phys. 77, 3654 (1982).
   K - Zn      : V. A. Rassolov, J. A. Pople, M. A. Ratner, and T. L. Windus, J. Chem. Phys. 109, 1223 (1998).

================================================================================
                                        WARNINGS
                       Please study these warnings very carefully!
================================================================================


================================================================================
                                       INPUT FILE
================================================================================
NAME = frag.inp
|  1> !HF 6-31G* EnGrad
|  2> %pal nprocs 1 end
|  3> *xyz 0 1
|  4> O 24.10596000 46.93173000 41.50917000
|  5> H 24.52341000 46.31399000 41.96223000
|  6> H 24.52212000 47.66562000 41.73132000
|  7> O 21.78987000 47.25010000 37.48256000
|  8> H 21.67133000 47.22017000 38.34638000
|  9> H 21.14108000 47.76263000 37.20411000
| 10> O 22.25294000 44.28778000 39.87163000
| 11> H 22.68414000 43.83080000 40.47691000
| 12> H 22.81575000 44.91633000 39.64956000
| 13> O 21.99613000 48.36911000 43.54199000
| 14> H 21.97702000 49.24128000 43.53308000
| 15> H 21.46413000 48.14557000 42.88766000
| 16> *
| 17> 
| 18>                          ****END OF INPUT****
================================================================================

                     *******************************
                     * Energy+Gradient Calculation *
                     *******************************

---------------------------------
CARTESIAN COORDINATES (ANGSTROEM)
---------------------------------
  O     24.105960   46.931730   41.509170
  H     24.523410   46.313990   41.962230
  H     24.522120   47.665620   41.731320
  O     21.789870   47.250100   37.482560
  H     21.671330   47.220170   38.346380
  H     21.141080   47.762630   37.204110
  O     22.252940   44.287780   39.871630
  H     22.684140   43.830800   40.476910
  H     22.815750   44.916330   39.649560
  O     21.996130   48.369110   43.541990
  H     21.977020   49.241280   43.533080
  H     21.464130   48.145570   42.887660

----------------------------
CARTESIAN COORDINATES (A.U.)
----------------------------
  NO LB      ZA    FRAG     MASS         X           Y           Z
   0 O     8.0000    0    15.999   45.553663   88.688117   78.440963
   1 H     1.0000    0     1.008   46.342529   87.520757   79.297123
   2 H     1.0000    0     1.008   46.340091   90.074968   78.860766
   3 O     8.0000    0    15.999   41.176887   89.289749   70.831773
   4 H     1.0000    0     1.008   40.952879   89.233189   72.464156
   5 H     1.0000    0     1.008   39.950851   90.258290   70.305579
   6 O     8.0000    0    15.999   42.051962   83.691775   75.346461
   7 H     1.0000    0     1.008   42.866812   82.828208   76.490275
   8 H     1.0000    0     1.008   43.115519   84.879563   74.926810
   9 O     8.0000    0    15.999   41.566662   91.404371   82.282436
  10 H     1.0000    0     1.008   41.530549   93.052534   82.265599
  11 H     1.0000    0     1.008   40.561327   90.981942   81.045932

--------------------------------
INTERNAL COORDINATES (ANGSTROEM)
--------------------------------
 O      0   0   0     0.000000000000     0.00000000     0.00000000
 H      1   0   0     0.872427976225     0.00000000     0.00000000
 H      1   2   0     0.872430111929   103.60043743     0.00000000
 O      1   2   3     4.656094977242   137.35234498   150.46640271
 H      4   1   2     0.872429096775    37.71829684   105.15642469
 H      4   1   2     0.872439033687   133.32203144   151.43797541
 O      5   4   1     3.356124083925   117.15578849   289.08001104
 H      7   5   4     0.872426523439   149.16283161   122.62062527
 H      7   5   4     0.872436406565    50.70030800    83.72012381
 O      3   1   2     3.186541935877    87.26422674   254.97016683
 H     10   3   1     0.872424832923   103.43046951   210.28054201
 H     10   3   1     0.872434456277    90.03694945   314.27919388

---------------------------
INTERNAL COORDINATES (A.U.)
---------------------------
 O      0   0   0     0.000000000000     0.00000000     0.00000000
 H      1   0   0     1.648649946636     0.00000000     0.00000000
 H      1   2   0     1.648653982532   103.60043743     0.00000000
 O      1   2   3     8.798744360514   137.35234498   150.46640271
 H      4   1   2     1.648652064169    37.71829684   105.15642469
 H      4   1   2     1.648670842211   133.32203144   151.43797541
 O      5   4   1     6.342155390075   117.15578849   289.08001104
 H      7   5   4     1.648647201269   149.16283161   122.62062527
 H      7   5   4     1.648665877670    50.70030800    83.72012381
 O      3   1   2     6.021691573062    87.26422674   254.97016683
 H     10   3   1     1.648644006656   103.43046951   210.28054201
 H     10   3   1     1.648662192161    90.03694945   314.27919388

---------------------
BASIS SET INFORMATION
---------------------
There are 2 groups of distinct atoms

 Group   1 Type O   : 10s4p1d contracted to 3s2p1d pattern {631/31/1}
 Group   2 Type H   : 4s contracted to 2s pattern {31}

Atom   0O    basis set group =>   1
Atom   1H    basis set group =>   2
Atom   2H    basis set group =>   2
Atom   3O    basis set group =>   1
Atom   4H    basis set group =>   2
Atom   5H    basis set group =>   2
Atom   6O    basis set group =>   1
Atom   7H    basis set group =>   2
Atom   8H    basis set group =>   2
Atom   9O    basis set group =>   1
Atom  10H    basis set group =>   2
Atom  11H    basis set group =>   2
------------------------------------------------------------------------------
                             ORCA STARTUP CALCULATIONS
------------------------------------------------------------------------------
------------------------------------------------------------------------------
                   ___                                                        
                  /   \      - P O W E R E D   B Y -                         
                 /     \                                                     
                 |  |  |   _    _      __       _____    __    __             
                 |  |  |  | |  | |    /  \     |  _  \  |  |  /  |          
                  \  \/   | |  | |   /    \    | | | |  |  | /  /          
                 / \  \   | |__| |  /  /\  \   | |_| |  |  |/  /          
                |  |  |   |  __  | /  /__\  \  |    /   |      \           
                |  |  |   | |  | | |   __   |  |    \   |  |\   \          
                \     /   | |  | | |  |  |  |  | |\  \  |  | \   \       
                 \___/    |_|  |_| |__|  |__|  |_| \__\ |__|  \__/        
                                                                              
                      - O R C A' S   B I G   F R I E N D -                    
                                      &                                       
                       - I N T E G R A L  F E E D E R -                       
                                                                              
 v1 FN, 2020, v2 2021, v3 2022-2024                                           
------------------------------------------------------------------------------


----------------------
SHARK INTEGRAL PACKAGE
----------------------

Number of atoms                             ...     12
Number of basis functions                   ...     72
Number of shells                            ...     40
Maximum angular momentum                    ...      2
Integral batch strategy                     ... SHARK/LIBINT Hybrid
RI-J (if used) integral strategy            ... SPLIT-RIJ (Revised 2003 algorithm where possible)
Printlevel                                  ...      1
Contraction scheme used                     ... SEGMENTED contraction
Prescreening option                         ... SCHWARTZ
   Thresh                                   ... 2.500e-11
   Tcut                                     ... 2.500e-12
   Tpresel                                  ... 2.500e-12 
Coulomb Range Separation                    ... NOT USED
Exchange Range Separation                   ... NOT USED
Multipole approximations                    ... NOT USED
Finite Nucleus Model                        ... NOT USED
CABS basis                                  ... NOT available
Auxiliary Coulomb fitting basis             ... NOT available
Auxiliary J/K fitting basis                 ... NOT available
Auxiliary Correlation fitting basis         ... NOT available
Auxiliary 'external' fitting basis          ... NOT available

Checking pre-screening integrals            ... done (  0.0 sec) Dimension = 40
Check shell pair data                       ... done (  0.0 sec)
Shell pair information
Shell pair cut-off parameter TPreSel        ...   2.5e-12
Total number of shell pairs                 ...       820
Shell pairs after pre-screening             ...       671
Total number of primitive shell pairs       ...      4386
Primitive shell pairs kept                  ...      2264
          la=0 lb=0:    335 shell pairs
          la=1 lb=0:    184 shell pairs
          la=1 lb=1:     33 shell pairs
          la=2 lb=0:     85 shell pairs
          la=2 lb=1:     26 shell pairs
          la=2 lb=2:      8 shell pairs

Calculating one electron integrals          ... done (  0.0 sec)
Calculating Nuclear repulsion               ... done (  0.0 sec) ENN=    114.232021988434 Eh

Diagonalization of the overlap matrix:
Smallest eigenvalue                        ... 4.535e-02
Time for diagonalization                   ...    0.001 sec
Threshold for overlap eigenvalues          ... 1.000e-07
Number of eigenvalues below threshold      ... 0
Time for construction of square roots      ...    0.010 sec
Total time needed                          ...    0.016 sec

-------------------
DFT GRID GENERATION
-------------------

General Integration Accuracy     IntAcc      ... 4.388
Radial Grid Type                 RadialGrid  ... OptM3 with GC (2021)
Angular Grid (max. ang.)         AngularGrid ... 4 (Lebedev-302)
Angular grid pruning method      GridPruning ... 4 (adaptive)
Weight generation scheme         WeightScheme... mBecke (2022)
Basis function cutoff            BFCut       ... 1.0000e-11
Integration weight cutoff        WCut        ... 1.0000e-14
Partially contracted basis set               ... off
Rotationally invariant grid construction     ... off
Angular grids for H and He will be reduced by one unit

Total number of grid points                  ...    50860
Total number of batches                      ...      800
Average number of points per batch           ...       63
Average number of grid points per atom       ...     4238
Initializing property integral containers    ... done (  0.0 sec)

SHARK setup successfully completed in   0.5 seconds

Maximum memory used throughout the entire STARTUP-calculation: 17.3 MB
-------------------------------------------------------------------------------
                                 ORCA GUESS
                   Start orbitals & Density for SCF / CASSCF
-------------------------------------------------------------------------------

------------
SCF SETTINGS
------------
Hamiltonian:
 Ab initio Hamiltonian  Method          .... Hartree-Fock(GTOs)


General Settings:
 Integral files         IntName         .... frag
 Hartree-Fock type      HFTyp           .... RHF
 Total Charge           Charge          ....    0
 Multiplicity           Mult            ....    1
 Number of Electrons    NEL             ....   40
 Basis Dimension        Dim             ....   72
 Nuclear Repulsion      ENuc            ....    114.2320219884 Eh

Convergence Acceleration:
 AO-DIIS                CNVDIIS         .... on
   Start iteration      DIISMaxIt       ....    12
   Startup error        DIISStart       ....  0.200000
   # of expansion vecs  DIISMaxEq       ....     5
   Bias factor          DIISBfac        ....   1.050
   Max. coefficient     DIISMaxC        ....  10.000
 MO-DIIS                CNVKDIIS        .... off
 Trust-Rad. Augm. Hess. CNVTRAH         .... auto
   Auto Start mean grad. ratio tolernc. ....  1.125000
   Auto Start start iteration           ....    50
   Auto Start num. interpolation iter.  ....    10
   Max. Number of Micro iterations      ....    24
   Max. Number of Macro iterations      .... Maxiter - #DIIS iter
   Number of Davidson start vectors     ....     2
   Converg. threshold    (grad. norm)   ....   1.000e-05
   Grad. Scal. Fac. for Micro threshold ....   0.100
   Minimum threshold for Micro iter.    ....   1.000e-02
   NR start threshold (gradient norm)   ....   1.000e-04
   Initial trust radius                 ....   0.400
   Minimum AH scaling param. (alpha)    ....   1.000
   Maximum AH scaling param. (alpha)    .... 1000.000
   Quad. conv. algorithm                .... NR
   White noise on init. David. guess    .... on
   Maximum white noise                  ....   0.010
   Pseudo random numbers                .... off
   Inactive MOs                         .... canonical
   Orbital update algorithm             .... Taylor
   Preconditioner                       .... Diag
   Full preconditioner red. dimension   ....   250
 SOSCF                  CNVSOSCF        .... on
   Start iteration      SOSCFMaxIt      ....   150
   Startup grad/error   SOSCFStart      ....  0.003300
   Hessian update       SOSCFHessUp     .... L-BFGS
 Level Shifting         CNVShift        .... on
   Level shift para.    LevelShift      ....    0.2500
   Turn off err/grad.   ShiftErr        ....    0.0010
 Zerner damping         CNVZerner       .... off
 Static damping         CNVDamp         .... on
   Fraction old density DampFac         ....    0.7000
   Max. Damping (<1)    DampMax         ....    0.9800
   Min. Damping (>=0)   DampMin         ....    0.0000
   Turn off err/grad.   DampErr         ....    0.1000

SCF Procedure:
 Maximum # iterations   MaxIter         ....   125
 SCF integral mode      SCFMode         .... Direct
   Integral package                     .... SHARK and LIBINT hybrid scheme
 Reset frequency        DirectResetFreq ....    20
 Integral Threshold     Thresh          ....  2.500e-11 Eh
 Primitive CutOff       TCut            ....  2.500e-12 Eh

Convergence Tolerance:
 Convergence Check Mode ConvCheckMode   .... Total+1el-Energy
 Convergence forced     ConvForced      .... 0
 Energy Change          TolE            ....  1.000e-08 Eh
 1-El. energy change                    ....  1.000e-05 Eh
 Orbital Gradient       TolG            ....  1.000e-05
 Orbital Rotation angle TolX            ....  1.000e-05
 DIIS Error             TolErr          ....  5.000e-07

------------------------------
INITIAL GUESS: MODEL POTENTIAL
------------------------------
Loading Hartree-Fock densities                     ... done
Calculating cut-offs                               ... done
Initializing the effective Hamiltonian             ... done
Setting up the integral package (SHARK)            ... done
Starting the Coulomb interaction                   ... done (   0.0 sec)
Making the grid                                    ... done (   0.1 sec)
Mapping shells                                     ... done
Starting the XC term evaluation                    ... done (   0.0 sec)
Transforming the Hamiltonian                       ... done (   0.0 sec)
Diagonalizing the Hamiltonian                      ... done (   0.0 sec)
Back transforming the eigenvectors                 ... done (   0.0 sec)
Now organizing SCF variables                       ... done
                      ------------------
                      INITIAL GUESS DONE (   0.2 sec)
                      ------------------
             **** ENERGY FILE WAS UPDATED (frag.en.tmp) ****
Finished Guess after   0.2 sec
Maximum memory used throughout the entire GUESS-calculation: 7.3 MB

-------------------------------------------------------------------------------------------
                                      ORCA LEAN-SCF
                              memory conserving SCF solver
-------------------------------------------------------------------------------------------

----------------------------------------D-I-I-S--------------------------------------------
Iteration    Energy (Eh)           Delta-E    RMSDP     MaxDP     DIISErr   Damp  Time(sec)
-------------------------------------------------------------------------------------------
               ***  Starting incremental Fock matrix formation  ***
    1    -303.5677805715227464     0.00e+00  6.25e-03  7.20e-02  3.30e-01  0.700   0.2
    2    -303.7292413334225785    -1.61e-01  4.25e-03  4.94e-02  2.01e-01  0.700   0.2
                               ***Turning on AO-DIIS***
    3    -303.8164760320433402    -8.72e-02  1.67e-03  2.15e-02  1.12e-01  0.700   0.1
    4    -303.8691665079595623    -5.27e-02  1.01e-03  1.37e-02  7.62e-02  0.700   0.1
    5    -303.9039926562080609    -3.48e-02  2.33e-03  3.27e-02  5.43e-02  0.000   0.1
    6    -303.9816644801204575    -7.77e-02  1.64e-04  1.83e-03  3.50e-03  0.000   0.1
                              *** Initializing SOSCF ***
---------------------------------------S-O-S-C-F--------------------------------------
Iteration    Energy (Eh)           Delta-E    RMSDP     MaxDP     MaxGrad    Time(sec)
--------------------------------------------------------------------------------------
    7    -303.9817279430653230    -6.35e-05  1.03e-04  8.07e-04  1.19e-03     0.1
               *** Restarting incremental Fock matrix formation ***
    8    -303.9817404584676410    -1.25e-05  4.73e-05  4.99e-04  2.07e-04     0.1
    9    -303.9817417945368447    -1.34e-06  2.98e-05  2.42e-04  8.42e-05     0.1
   10    -303.9817420432283939    -2.49e-07  3.88e-06  4.59e-05  3.35e-05     0.1
   11    -303.9817420568478497    -1.36e-08  9.14e-07  9.73e-06  6.44e-06     0.1
   12    -303.9817420574107132    -5.63e-10  1.86e-07  1.99e-06  9.64e-07     0.1
                 **** Energy Check signals convergence ****

               *****************************************************
               *                     SUCCESS                       *
               *           SCF CONVERGED AFTER  12 CYCLES          *
               *****************************************************

             **** ENERGY FILE WAS UPDATED (frag.en.tmp) ****

----------------
TOTAL SCF ENERGY
----------------

Total Energy       :       -303.98174205741071 Eh           -8271.76373 eV

Components:
Nuclear Repulsion  :        114.23202198843386 Eh            3108.41135 eV
Electronic Energy  :       -418.21376404584458 Eh          -11380.17508 eV
One Electron Energy:       -646.34476862613565 Eh          -17587.93531 eV
Two Electron Energy:        228.13100458029106 Eh            6207.76023 eV

Virial components:
Potential Energy   :       -609.50063535735285 Eh          -16585.35547 eV
Kinetic Energy     :        305.51889329994208 Eh            8313.59174 eV
Virial Ratio       :          1.99496871952524

---------------
SCF CONVERGENCE
---------------

  Last Energy change         ...    5.6286e-10  Tolerance :   1.0000e-08
  Last MAX-Density change    ...    1.9914e-06  Tolerance :   1.0000e-07
  Last RMS-Density change    ...    1.8625e-07  Tolerance :   5.0000e-09
  Last DIIS Error            ...    1.1912e-03  Tolerance :   5.0000e-07
  Last Orbital Gradient      ...    9.6424e-07  Tolerance :   1.0000e-05
  Last Orbital Rotation      ...    1.0553e-06  Tolerance :   1.0000e-05


----------------
ORBITAL ENERGIES
----------------

  NO   OCC          E(Eh)            E(eV) 
   0   2.0000     -20.544472      -559.0435 
   1   2.0000     -20.537741      -558.8603 
   2   2.0000     -20.530800      -558.6715 
   3   2.0000     -20.524929      -558.5117 
   4   2.0000      -1.397391       -38.0250 
   5   2.0000      -1.391074       -37.8530 
   6   2.0000      -1.384412       -37.6718 
   7   2.0000      -1.378337       -37.5064 
   8   2.0000      -0.760691       -20.6995 
   9   2.0000      -0.753668       -20.5083 
  10   2.0000      -0.747728       -20.3467 
  11   2.0000      -0.740503       -20.1501 
  12   2.0000      -0.597398       -16.2560 
  13   2.0000      -0.589066       -16.0293 
  14   2.0000      -0.581989       -15.8367 
  15   2.0000      -0.576149       -15.6778 
  16   2.0000      -0.516018       -14.0416 
  17   2.0000      -0.498999       -13.5785 
  18   2.0000      -0.497838       -13.5468 
  19   2.0000      -0.492178       -13.3928 
  20   0.0000       0.197904         5.3852 
  21   0.0000       0.228362         6.2140 
  22   0.0000       0.244519         6.6537 
  23   0.0000       0.273309         7.4371 
  24   0.0000       0.316374         8.6090 
  25   0.0000       0.323756         8.8099 
  26   0.0000       0.335905         9.1404 
  27   0.0000       0.379464        10.3257 
  28   0.0000       1.036222        28.1970 
  29   0.0000       1.044109        28.4116 
  30   0.0000       1.048829        28.5401 
*Only the first 10 virtual orbitals were printed.

                    ********************************
                    * MULLIKEN POPULATION ANALYSIS *
                    ********************************

-----------------------
MULLIKEN ATOMIC CHARGES
-----------------------
   0 O :   -0.892004
   1 H :    0.445020
   2 H :    0.449071
   3 O :   -0.890373
   4 H :    0.447884
   5 H :    0.442338
   6 O :   -0.895863
   7 H :    0.440287
   8 H :    0.453245
   9 O :   -0.887839
  10 H :    0.440270
  11 H :    0.447965
Sum of atomic charges:    0.0000000

--------------------------------
MULLIKEN REDUCED ORBITAL CHARGES
--------------------------------
  0 O s       :     3.843930  s :     3.843930
      pz      :     1.849647  p :     5.015296
      px      :     1.800588
      py      :     1.365062
      dz2     :     0.003067  d :     0.032778
      dxz     :     0.006858
      dyz     :     0.008188
      dx2y2   :     0.000827
      dxy     :     0.013839

  1 H s       :     0.554980  s :     0.554980

  2 H s       :     0.550929  s :     0.550929

  3 O s       :     3.846902  s :     3.846902
      pz      :     1.449449  p :     5.010029
      px      :     1.732379
      py      :     1.828201
      dz2     :     0.015172  d :     0.033442
      dxz     :     0.004319
      dyz     :     0.001233
      dx2y2   :     0.002668
      dxy     :     0.010051

  4 H s       :     0.552116  s :     0.552116

  5 H s       :     0.557662  s :     0.557662

  6 O s       :     3.847067  s :     3.847067
      pz      :     1.715450  p :     5.015531
      px      :     1.715283
      py      :     1.584798
      dz2     :     0.004552  d :     0.033265
      dxz     :     0.009483
      dyz     :     0.002864
      dx2y2   :     0.001695
      dxy     :     0.014672

  7 H s       :     0.559713  s :     0.559713

  8 H s       :     0.546755  s :     0.546755

  9 O s       :     3.846309  s :     3.846309
      pz      :     1.731866  p :     5.008072
      px      :     1.819694
      py      :     1.456512
      dz2     :     0.007215  d :     0.033458
      dxz     :     0.010411
      dyz     :     0.001712
      dx2y2   :     0.012413
      dxy     :     0.001707

 10 H s       :     0.559730  s :     0.559730

 11 H s       :     0.552035  s :     0.552035



                     *******************************
                     * LOEWDIN POPULATION ANALYSIS *
                     *******************************

----------------------
LOEWDIN ATOMIC CHARGES
----------------------
   0 O :   -0.627392
   1 H :    0.313328
   2 H :    0.315690
   3 O :   -0.626703
   4 H :    0.314255
   5 H :    0.312353
   6 O :   -0.628649
   7 H :    0.311175
   8 H :    0.315583
   9 O :   -0.625613
  10 H :    0.310810
  11 H :    0.315164

-------------------------------
LOEWDIN REDUCED ORBITAL CHARGES
-------------------------------
  0 O s       :     3.553574  s :     3.553574
      pz      :     1.856399  p :     5.032433
      px      :     1.809871
      py      :     1.366162
      dz2     :     0.003646  d :     0.041384
      dxz     :     0.007277
      dyz     :     0.010883
      dx2y2   :     0.001652
      dxy     :     0.017926

  1 H s       :     0.686672  s :     0.686672

  2 H s       :     0.684310  s :     0.684310

  3 O s       :     3.555372  s :     3.555372
      pz      :     1.455620  p :     5.029123
      px      :     1.741350
      py      :     1.832154
      dz2     :     0.020114  d :     0.042207
      dxz     :     0.005485
      dyz     :     0.001700
      dx2y2   :     0.002768
      dxy     :     0.012140

  4 H s       :     0.685745  s :     0.685745

  5 H s       :     0.687647  s :     0.687647

  6 O s       :     3.554307  s :     3.554307
      pz      :     1.719587  p :     5.032441
      px      :     1.727884
      py      :     1.584969
      dz2     :     0.005527  d :     0.041901
      dxz     :     0.011522
      dyz     :     0.004412
      dx2y2   :     0.001765
      dxy     :     0.018675

  7 H s       :     0.688825  s :     0.688825

  8 H s       :     0.684417  s :     0.684417

  9 O s       :     3.555906  s :     3.555906
      pz      :     1.737324  p :     5.027434
      px      :     1.823899
      py      :     1.466212
      dz2     :     0.009097  d :     0.042273
      dxz     :     0.012596
      dyz     :     0.002267
      dx2y2   :     0.016226
      dxy     :     0.002087

 10 H s       :     0.689190  s :     0.689190

 11 H s       :     0.684836  s :     0.684836



                      *****************************
                      * MAYER POPULATION ANALYSIS *
                      *****************************

  NA   - Mulliken gross atomic population
  ZA   - Total nuclear charge
  QA   - Mulliken gross atomic charge
  VA   - Mayer's total valence
  BVA  - Mayer's bonded valence
  FA   - Mayer's free valence

  ATOM       NA         ZA         QA         VA         BVA        FA
  0 O      8.8920     8.0000    -0.8920     1.5571     1.5571     0.0000
  1 H      0.5550     1.0000     0.4450     0.7668     0.7668    -0.0000
  2 H      0.5509     1.0000     0.4491     0.7659     0.7659     0.0000
  3 O      8.8904     8.0000    -0.8904     1.5511     1.5511    -0.0000
  4 H      0.5521     1.0000     0.4479     0.7643     0.7643    -0.0000
  5 H      0.5577     1.0000     0.4423     0.7687     0.7687    -0.0000
  6 O      8.8959     8.0000    -0.8959     1.5467     1.5467     0.0000
  7 H      0.5597     1.0000     0.4403     0.7704     0.7704     0.0000
  8 H      0.5468     1.0000     0.4532     0.7633     0.7633     0.0000
  9 O      8.8878     8.0000    -0.8878     1.5566     1.5566    -0.0000
 10 H      0.5597     1.0000     0.4403     0.7697     0.7697     0.0000
 11 H      0.5520     1.0000     0.4480     0.7657     0.7657     0.0000

  Mayer bond orders larger than 0.100000
B(  0-O ,  1-H ) :   0.7755 B(  0-O ,  2-H ) :   0.7716 B(  3-O ,  4-H ) :   0.7719 
B(  3-O ,  5-H ) :   0.7781 B(  6-O ,  7-H ) :   0.7797 B(  6-O ,  8-H ) :   0.7652 
B(  9-O , 10-H ) :   0.7790 B(  9-O , 11-H ) :   0.7726 

-------
TIMINGS
-------

Total SCF time: 0 days 0 hours 0 min 1 sec 

Total time                  ....       1.696 sec
Sum of individual times     ....       1.628 sec  ( 96.0%)

SCF preparation             ....       0.071 sec  (  4.2%)
Fock matrix formation       ....       1.234 sec  ( 72.8%)
  Startup                   ....       0.031 sec  (  2.5% of F)
  Coulomb+Exchange Fock     ....       1.140 sec  ( 92.3% of F)
Diagonalization             ....       0.000 sec  (  0.0%)
Density matrix formation    ....       0.073 sec  (  4.3%)
Total Energy calculation    ....       0.024 sec  (  1.4%)
Population analysis         ....       0.018 sec  (  1.1%)
Orbital Transformation      ....       0.021 sec  (  1.2%)
Orbital Orthonormalization  ....       0.000 sec  (  0.0%)
DIIS solution               ....       0.141 sec  (  8.3%)
SOSCF solution              ....       0.046 sec  (  2.7%)
Finished LeanSCF after   1.7 sec

Maximum memory used throughout the entire LEANSCF-calculation: 8.2 MB

-------------------------   --------------------
FINAL SINGLE POINT ENERGY      -303.981742057411
-------------------------   --------------------

------------------------------------------------------------------------------
                         ORCA SCF GRADIENT CALCULATION
------------------------------------------------------------------------------

Nuc. rep. gradient        (SHARK) ... done (  0.0 sec)
HCore & Overlap gradient  (SHARK) ... done (  0.0 sec)
Two-electron gradient     (SHARK) ... done (  0.4 sec)

------------------
CARTESIAN GRADIENT
------------------

   1   O   :    0.095180426    0.016498618    0.083527294
   2   H   :   -0.047539386    0.085132645   -0.057024067
   3   H   :   -0.046386733   -0.100068075   -0.024828142
   4   O   :   -0.089449108    0.054310603    0.067674903
   5   H   :    0.008160468    0.010551986   -0.112972038
   6   H   :    0.081010964   -0.064556123    0.044937648
   7   O   :    0.115644277    0.020779100    0.044232846
   8   H   :   -0.048160540    0.063955152   -0.079039448
   9   H   :   -0.067441716   -0.086045570    0.034555623
  10   O   :   -0.063797239    0.072519727   -0.078310381
  11   H   :   -0.002695221   -0.112859648   -0.006393680
  12   H   :    0.065473809    0.039781587    0.083639444

Difference to translation invariance:
           :   -0.0000000000   -0.0000000000   -0.0000000000

Difference to rotation invariance:
           :   -0.0000001795    0.0000004089   -0.0000000551

Norm of the Cartesian gradient     ...    0.4071211697
RMS gradient                       ...    0.0678535283
MAX gradient                       ...    0.1156442766

-------
TIMINGS
-------

Total SCF gradient time     ....        0.440 sec

Densities                   ....       0.000 sec  (  0.0%)
One electron gradient       ....       0.034 sec  (  7.8%)
Two electron gradient       ....       0.406 sec  ( 92.2%)

Maximum memory used throughout the entire SCFGRAD-calculation: 14.0 MB

------------------------------------------------------------------------------
                              ORCA PROPERTY CALCULATIONS
------------------------------------------------------------------------------

GBWName                                 ... frag.gbw
Number of atoms                         ...     12
Number of basis functions               ...     72
Max core memory                         ...   1024 MB

Electric properties:
Dipole moment                           ... YES
Quadrupole moment                       ...  NO
Static polarizability (Dipole/Dipole)   ...  NO
Static polarizability (Dipole/Quad.)    ...  NO
Static polarizability (Quad./Quad.)     ...  NO
Static polarizability (Velocity)        ...  NO

Atomic electric properties:
Dipole moment                           ...  NO
Quadrupole moment                       ...  NO
Static polarizability                   ...  NO

Choice of electric origin               ... Center of mass
Position of electric origin             ...    42.600753    88.306012    76.751329

General magnetic properties:
Magnetizability                         ...  NO

EPR properties:
g-Tensor (aka g-matrix)                 ...  NO
Zero-Field splitting spin-orbit         ...  NO
Zero-field splitting spin-spin          ...  NO
Hyperfine couplings                     ...  NO (   0 nuclei)
Quadrupole couplings                    ...  NO (   0 nuclei)
Contact density                         ...  NO (   0 nuclei)

NMR properties:
Chemical shifts                         ...  NO (   0 nuclei)
Spin-rotation constants                 ...  NO (   0 nuclei)
Spin-spin couplings                     ...  NO (   0 nuclei,    0 pairs)

Choice of magnetic origin               ... GIAO
Position of magnetic origin             ...     0.000000     0.000000     0.000000

Properties with geometric perturbations:
SCF Hessian                             ...  NO
IR spectrum                             ...  NO
VCD spectrum                            ...  NO
X-ray spectroscopy properties:
SCF XES/XAS/RIXS spectra                ...  NO


-------------
DIPOLE MOMENT
-------------

Method             : SCF
Type of density    : Electron Density
Multiplicity       :   1
Irrep              :   0
Energy             :  -303.9817420574107132 Eh
Relativity type    : 
Basis              : AO
                                X                 Y                 Z
Electronic contribution:     -0.013985938      -0.051772428      -0.030536407
Nuclear contribution   :      0.423821389       1.181078126       0.816171222
                        -----------------------------------------
Total Dipole Moment    :      0.409835451       1.129305697       0.785634815
                        -----------------------------------------
Magnitude (a.u.)       :      1.435450632
Magnitude (Debye)      :      3.648625546



--------------------
Rotational spectrum 
--------------------
 
Rotational constants in cm-1:             0.088543             0.037802             0.031840 
Rotational constants in MHz :          2654.449795          1133.284995           954.537993 

Dipole components along the rotational axes: 
x,y,z [a.u.] :     1.187652     0.632945    -0.499381 
x,y,z [Debye]:     3.018772     1.608819    -1.269325 

 

Dipole moment calculation done in   0.0 sec 

Maximum memory used throughout the entire PROP-calculation: 2.6 MB

--------------------------------
SUGGESTED CITATIONS FOR THIS RUN
--------------------------------

Below you find a list of papers that are relevant to this ORCA run
We neither can nor want to force you to cite these papers, but we appreciate if you do
You receive ORCA, which is the product of decades of hard work by many enthusiastic individuals, for free
The only thing we kindly ask in return is that you cite our papers,
We deeply appreciate it, if you show your appreciation for ORCA by not just citing the generic ORCA reference.

Please note that relegating all ORCA citations to the supporting information does *not* help us.
SI sections are not indexed - citations you put there will not count into any citation statistics
But we need these citations in order to attract the funding resources that allow us to do what we are doing

Therefore, if you are a happy ORCA user, please consider citing a few of the papers listed below in the main body of your paper

In addition to the list printed below, the program has created the file frag.bibtex that contains the list in bibtex format
You can import this file easily into all common literature databanks and citation aid programs


List of essential papers. We consider these as the minimum necessary citations

  1. Neese,F.
     Software update: the ORCA program system, version 5.0
     WIRES Comput. Molec. Sci., 2022 12(1)e1606
     doi.org/10.1002/wcms.1606

List of papers to cite with high priority. The work reported in these papers was absolutely
necessary for this run to complete.
Our perspective: the developers of density functionals and basis sets usually get cited in chemistry papers
Good! But without the algorithms to do something with them, the functionals or basis sets would not do anything.
Hence, in our opinion, the algorithm design and method developments papers are equally worthy of getting cited

  1. Neese,F.
     The SHARK Integral Generation and Digestion System
     J. Comp. Chem., 2022  1-16
     doi.org/10.1002/jcc.26942

List of suggested additional citations. These are papers that are important in the 'surrounding' of 
of this run, or papers that preceded the highly important papers. If you like your results we are grateful for a citation.

  1. Neese,F.
     The ORCA program system
     WIRES Comput. Molec. Sci., 2012 2(1)73-78
     doi.org/10.1002/wcms.81
  2. Neese,F.
     Software update: the ORCA program system, version 4.0
     WIRES Comput. Molec. Sci., 2018 8(1)1-6
     doi.org/10.1002/wcms.1327
  3. Neese,F.; Wennmohs,F.; Becker,U.; Riplinger,C.
     The ORCA quantum chemistry program package
     J. Chem. Phys., 2020 152 Art. No. L224108
     doi.org/10.1063/5.0004608

List of optional additional citations

  1. Neese,F.
     Approximate second-order SCF convergence for spin unrestricted wavefunctions
     Chem. Phys. Lett., 2000 325(1-3)93-98
     doi.org/10.1016/s0009-2614(00)00662-x

Timings for individual modules:

Sum of individual times          ...        3.079 sec (=   0.051 min)
Startup calculation              ...        0.524 sec (=   0.009 min)  17.0 %
SCF iterations                   ...        1.980 sec (=   0.033 min)  64.3 %
Property calculations            ...        0.069 sec (=   0.001 min)   2.2 %
SCF Gradient evaluation          ...        0.506 sec (=   0.008 min)  16.4 %
                             ****ORCA TERMINATED NORMALLY****
TOTAL RUN TIME: 0 days 0 hours 0 minutes 3 seconds 350 msec
