
                                 *****************
                                 * O   R   C   A *
                                 *****************

                                            #,                                       
                                            ###                                      
                                            ####                                     
                                            #####                                    
                                            ######                                   
                                           ########,                                 
                                     ,,################,,,,,                         
                               ,,#################################,,                 
                          ,,##########################################,,             
                       ,#########################################, ''#####,          
                    ,#############################################,,   '####,        
                  ,##################################################,,,,####,       
                ,###########''''           ''''###############################       
              ,#####''   ,,,,##########,,,,          '''####'''          '####       
            ,##' ,,,,###########################,,,                        '##       
           ' ,,###''''                  '''############,,,                           
         ,,##''                                '''############,,,,        ,,,,,,###''
      ,#''                                            '''#######################'''  
     '                                                          ''''####''''         
             ,#######,   #######,   ,#######,      ##                                
            ,#'     '#,  ##    ##  ,#'     '#,    #''#        ,####,   ,####,        
            ##       ##  ##   ,#'  ##            #'  '#       #'       #'  '#        
            ##       ##  #######   ##           ,######,      #####,   #    #        
            '#,     ,#'  ##    ##  '#,     ,#' ,#      #,     #,   #   #,  ,#        
             '#######'   ##     ##  '#######'  #'      '#     '####' # '####'        



                #########################################################
                #                        -***-                          #
                #          Department of theory and spectroscopy        #
                #                                                       #
                #                      Frank Neese                      #
                #                                                       #
                #     Directorship, Architecture, Infrastructure        #
                #                    SHARK, DRIVERS                     #
                #        Core code/Algorithms in most modules           #
                #                                                       #
                #        Max Planck Institute fuer Kohlenforschung      #
                #                Kaiser Wilhelm Platz 1                 #
                #                 D-45470 Muelheim/Ruhr                 #
                #                      Germany                          #
                #                                                       #
                #                  All rights reserved                  #
                #                        -***-                          #
                #########################################################


                         Program Version 6.0.1  -  RELEASE   -


 With contributions from (in alphabetic order):
[Max-Planck-Institut fuer Kohlenforschung]                               
  Daniel Aravena         : Magnetic Suceptibility                        
  Michael Atanasov       : Ab Initio Ligand Field Theory (pilot matlab implementation)
  Alexander A. Auer      : GIAO ZORA, VPT2 properties, NMR spectrum      
  Ute Becker             : All parallelization in ORCA, NUMFREQ, NUMCALC 
  Giovanni Bistoni       : ED, misc. LED, open-shell LED, HFLD           
  Martin Brehm           : Molecular dynamics                            
  Dmytro Bykov           : pre 5.0 version of the SCF Hessian            
  Marcos Casanova-Páez   : Triplet and SCS-CIS(D). UHF-(DLPNO)-IP/EA/STEOM-CCSD. UHF-CVS-IP/STEOM-CCSD   
  Vijay G. Chilkuri      : MRCI spin determinant printing, contributions to CSF-ICE 
  Pauline Colinet        : FMM embedding                                 
  Dipayan Datta          : RHF DLPNO-CCSD density                        
  Achintya Kumar Dutta   : EOM-CC, STEOM-CC                              
  Nicolas Foglia         : Exact transition moments, OPA infrastructure, MCD improvements    
  Dmitry Ganyushin       : Spin-Orbit,Spin-Spin,Magnetic field MRCI      
  Miquel Garcia-Rates    : C-PCM and meta-GGA Hessian, CCSD/C-PCM, Gaussian charge scheme 
  Tiago L. C. Gouveia    : GS-ROHF, GS-ROCIS                             
  Yang Guo               : DLPNO-NEVPT2, F12-NEVPT2, CIM, IAO-localization        
  Andreas Hansen         : Spin unrestricted coupled pair/coupled cluster methods 
  Ingolf Harden          : AUTO-CI MPn and infrastructure                
  Benjamin Helmich-Paris : MC-RPA, TRAH-(SCF,CASSCF), AVAS, COSX integrals, SCF dyn. polar. 
  Lee Huntington         : MR-EOM, pCC                                   
  Robert Izsak           : Overlap fitted RIJCOSX, COSX-SCS-MP3, EOM     
  Riya Kayal             : Wick's Theorem for AUTO-CI, AUTO-CI UHF-CCSDT 
  Emily Kempfer          : AUTO-CI, RHF CISDT and CCSDT                  
  Christian Kollmar      : KDIIS, OOCD, Brueckner-CCSD(T), CCSD density, CASPT2, CASPT2-K, improved NEVPT2 
  Axel Koslowski         : Symmetry handling                             
  Simone Kossmann        : meta-GGA functionals, TD-DFT gradient, OOMP2, (MP2 Hessian; deprecated post 5.0) 
  Lucas Lang             : DCDCAS                                        
  Marvin Lechner         : AUTO-CI (C++ implementation), FIC-MRCC        
  Spencer Leger          : CASSCF response                               
  Dagmar Lenk            : GEPOL surface, SMD, ORCA-2-JSON               
  Dimitrios Liakos       : Extrapolation schemes; Compound Job, initial MDCI parallelization 
  Dimitrios Manganas     : Further ROCIS development; embedding schemes. LFT, Crystal Embedding 
  Dimitrios Pantazis     : SARC Basis sets                               
  Anastasios Papadopoulos: AUTO-CI, single reference methods and gradients 
  Taras Petrenko         : pre 6.0 DFT Hessian and TD-DFT gradient, (ASA, deprecated), ECA, 1-Electron XAS/XES, NRVS 
  Peter Pinski           : DLPNO-MP2, DLPNO-MP2 Gradient                 
  Christoph Reimann      : Effective Core Potentials                     
  Marius Retegan         : Local ZFS, SOC                                
  Christoph Riplinger    : Optimizer, TS searches, QM/MM, DLPNO-CCSD(T), (RO)-DLPNO pert. Triples 
  Michael Roemelt        : Original ROCIS implementation                 
  Masaaki Saitow         : Open-shell DLPNO-CCSD energy and density      
  Barbara Sandhoefer     : DKH picture change effects                    
  Kantharuban Sivalingam : CASSCF convergence/infrastructure, NEVPT2 and variants, FIC-MRCI 
  Bernardo de Souza      : ESD, SOC TD-DFT                               
  Georgi L. Stoychev     : AutoAux, RI-MP2 NMR, DLPNO-MP2 response, X2C  
  Van Anh Tran           : RI-MP2 g-tensors                              
  Willem Van den Heuvel  : Paramagnetic NMR                              
  Zikuan Wang            : NOTCH, Electric field optimization            
  Frank Wennmohs         : Technical directorship and infrastructure     
  Hang Xu                : AUTO-CI-Response properties                   
                                                                         
[FACCTs GmbH]                                                            
  Markus Bursch, Miquel Garcia-Rates, Christoph Riplinger, Bernardo de Souza, Georgi L. Stoychev 
                                                                 
  APM, Basis sets (HGBS, AHGBS, def-TZVP (Ac-Lr), def2-XVPD (La-Lu)), CI-OPT, improved COSX, DLPNO-Multilevel,           
  DOCKER, DRACO, updates on ESD, GOAT, IRC, LR-CPCM, MBIS, meta-GGA TD-DFT gradient, ML-optimized integration grids, 
  MM, NACMEs, nearIR, NEB, NEB-TS, NL-DFT gradient (VV10), 2- and 3-layer-ONIOM, interface openCOSMO-RS, QMMM,   
  Crystal-QMMM, SF, symmetry and pop. for TD-DFT, r2SCAN hybrids, SOLVATOR                                   
                                                                         
[Other institutions]                                                     
  V. Asgeirsson          : NEB                                           
  Christoph Bannwarth    : sTDA-DFT, sTD-DFT, PBEh-3c, B97-3c, D3        
  Sebastian Ehlert       : rSCAN, r2SCAN, r2SCAN-3c, D4, dhf basis sets  
  Marvin Friede          : D4 for Fr, Ra, Ac-Lr                          
  Lars Goerigk           : TD-DFT with DH, B97 family of functionals     
  Stefan Grimme          : VdW corrections, initial TS optimization, DFT functionals, gCP, sTDA/sTD-DF 
  Waldemar Hujo          : DFT-NL                                        
  H. Jonsson             : NEB                                           
  Holger Kruse           : gCP                                           
  Marcel Mueller         : wB97X-3c, vDZP basis set                      
  Hagen Neugebauer       : wr2SCAN                                       
  Tobias Risthaus        : range-separated hybrid DFT                    
  Lukas Wittmann         : regularized MP2, r2SCAN double-hybrids, wr2SCAN        
                                                                         
We gratefully acknowledge several colleagues who have allowed us to      
interface, adapt or use parts of their codes:                            
  Ed Valeev, F. Pavosevic, A. Kumar             : LibInt (2-el integral package), F12 methods 
  Garnet Chan, S. Sharma, J. Yang, R. Olivares  : DMRG                   
  Ulf Ekstrom                                   : XCFun DFT Library      
  Mihaly Kallay                                 : mrcc  (arbitrary order and MRCC methods)
  Frank Weinhold                                : gennbo (NPA and NBO analysis)           
  Simon Mueller                                 : openCOSMO-RS                            
  Christopher J. Cramer and Donald G. Truhlar   : smd solvation model                     
  S Lehtola, MJT Oliveira, MAL Marques          : LibXC Library                           
  Liviu Ungur et al                             : ANISO software                          


 Your calculation uses the libint2 library for the computation of 2-el integrals
 For citations please refer to: http://libint.valeyev.net

 Your ORCA version has been built with support for libXC version: 6.2.2
 For citations please refer to: https://libxc.gitlab.io

 This ORCA versions uses:
   CBLAS   interface :  Fast vector & matrix operations
   LAPACKE interface :  Fast linear algebra routines
   SCALAPACK package :  Parallel linear algebra routines
   Shared memory     :  Shared parallel matrices
   BLAS/LAPACK       :  OpenBLAS 0.3.27  USE64BITINT DYNAMIC_ARCH NO_AFFINITY SkylakeX SINGLE_THREADED
        Core in use  :  SkylakeX
   Copyright (c) 2011-2014, The OpenBLAS Project


================================================================================

----- Orbital basis set information -----
Your calculation utilizes the basis: 6-31G*
   H-He, Li-Ne : W. J. Hehre, R. Ditchfield and J.A. Pople, J. Chem. Phys. 56, 2257 (1972).
                 Note: He and Ne are unpublished basis sets taken from the Gaussian program.
                 Note: Li and B from J. D. Dill and J. A. Pople, J. Chem. Phys. 62, 2921 (1975).
   Na - Ar     : M. M. Francl, W. J. Pietro, W. J. Hehre, J. S. Binkley, M. S. Gordon, 
                 D. J. DeFrees and J. A. Pople, J. Chem. Phys. 77, 3654 (1982).
   K - Zn      : V. A. Rassolov, J. A. Pople, M. A. Ratner, and T. L. Windus, J. Chem. Phys. 109, 1223 (1998).

================================================================================
                                        WARNINGS
                       Please study these warnings very carefully!
================================================================================


================================================================================
                                       INPUT FILE
================================================================================
NAME = frag.inp
|  1> !HF 6-31G* EnGrad
|  2> %pal nprocs 1 end
|  3> *xyz 0 1
|  4> O 21.31548000 47.19077000 40.87238000
|  5> H 22.11097000 46.98487000 41.16553000
|  6> H 20.96265000 46.41737000 40.67613000
|  7> O 20.35232000 49.63574000 40.01023000
|  8> H 20.79050000 48.92392000 40.26012000
|  9> H 19.54326000 49.49202000 40.30334000
| 10> O 21.78987000 47.25010000 37.48256000
| 11> H 21.67133000 47.22017000 38.34638000
| 12> H 21.14108000 47.76263000 37.20411000
| 13> O 19.10373000 45.58535000 40.48424000
| 14> H 18.38270000 45.25544000 40.12036000
| 15> H 18.82331000 45.89664000 41.24949000
| 16> *
| 17> 
| 18>                          ****END OF INPUT****
================================================================================

                     *******************************
                     * Energy+Gradient Calculation *
                     *******************************

---------------------------------
CARTESIAN COORDINATES (ANGSTROEM)
---------------------------------
  O     21.315480   47.190770   40.872380
  H     22.110970   46.984870   41.165530
  H     20.962650   46.417370   40.676130
  O     20.352320   49.635740   40.010230
  H     20.790500   48.923920   40.260120
  H     19.543260   49.492020   40.303340
  O     21.789870   47.250100   37.482560
  H     21.671330   47.220170   38.346380
  H     21.141080   47.762630   37.204110
  O     19.103730   45.585350   40.484240
  H     18.382700   45.255440   40.120360
  H     18.823310   45.896640   41.249490

----------------------------
CARTESIAN COORDINATES (A.U.)
----------------------------
  NO LB      ZA    FRAG     MASS         X           Y           Z
   0 O     8.0000    0    15.999   40.280420   89.177631   77.237605
   1 H     1.0000    0     1.008   41.783678   88.788537   77.791578
   2 H     1.0000    0     1.008   39.613668   87.716117   76.866746
   3 O     8.0000    0    15.999   38.460311   93.797955   75.608377
   4 H     1.0000    0     1.008   39.288351   92.452810   76.080601
   5 H     1.0000    0     1.008   36.931409   93.526364   76.162275
   6 O     8.0000    0    15.999   41.176887   89.289749   70.831773
   7 H     1.0000    0     1.008   40.952879   89.233189   72.464156
   8 H     1.0000    0     1.008   39.950851   90.258290   70.305579
   9 O     8.0000    0    15.999   36.100818   86.143827   76.504126
  10 H     1.0000    0     1.008   34.738269   85.520388   75.816493
  11 H     1.0000    0     1.008   35.570901   86.732080   77.950239

--------------------------------
INTERNAL COORDINATES (ANGSTROEM)
--------------------------------
 O      0   0   0     0.000000000000     0.00000000     0.00000000
 H      1   0   0     0.872431127712     0.00000000     0.00000000
 H      1   2   0     0.872439471482   103.59872274     0.00000000
 O      1   2   3     2.765656903703   129.11896367   197.01747687
 H      4   1   2     0.872430190273     9.76862677    18.30230780
 H      4   1   2     0.872437386922    94.16296827   213.12954087
 O      5   4   6     3.393413229022   108.41619438   115.19435551
 H      7   5   4     0.872429096775    33.53678511   194.84682685
 H      7   5   4     0.872439033687    75.66802933   340.40737457
 O      3   1   2     2.045644792944   138.51760024   155.95761940
 H     10   3   1     0.872429666735   160.72623553   104.87007073
 H     10   3   1     0.872435901944    93.70851241   310.81868034

---------------------------
INTERNAL COORDINATES (A.U.)
---------------------------
 O      0   0   0     0.000000000000     0.00000000     0.00000000
 H      1   0   0     1.648655902083     0.00000000     0.00000000
 H      1   2   0     1.648671669524   103.59872274     0.00000000
 O      1   2   3     5.226334128387   129.11896367   197.01747687
 H      4   1   2     1.648654130581     9.76862677    18.30230780
 H      4   1   2     1.648667730277    94.16296827   213.12954087
 O      5   4   6     6.412621662077   108.41619438   115.19435551
 H      7   5   4     1.648652064169    33.53678511   194.84682685
 H      7   5   4     1.648670842211    75.66802933   340.40737457
 O      3   1   2     3.865708425947   138.51760024   155.95761940
 H     10   3   1     1.648653141238   160.72623553   104.87007073
 H     10   3   1     1.648664924074    93.70851241   310.81868034

---------------------
BASIS SET INFORMATION
---------------------
There are 2 groups of distinct atoms

 Group   1 Type O   : 10s4p1d contracted to 3s2p1d pattern {631/31/1}
 Group   2 Type H   : 4s contracted to 2s pattern {31}

Atom   0O    basis set group =>   1
Atom   1H    basis set group =>   2
Atom   2H    basis set group =>   2
Atom   3O    basis set group =>   1
Atom   4H    basis set group =>   2
Atom   5H    basis set group =>   2
Atom   6O    basis set group =>   1
Atom   7H    basis set group =>   2
Atom   8H    basis set group =>   2
Atom   9O    basis set group =>   1
Atom  10H    basis set group =>   2
Atom  11H    basis set group =>   2
------------------------------------------------------------------------------
                             ORCA STARTUP CALCULATIONS
------------------------------------------------------------------------------
------------------------------------------------------------------------------
                   ___                                                        
                  /   \      - P O W E R E D   B Y -                         
                 /     \                                                     
                 |  |  |   _    _      __       _____    __    __             
                 |  |  |  | |  | |    /  \     |  _  \  |  |  /  |          
                  \  \/   | |  | |   /    \    | | | |  |  | /  /          
                 / \  \   | |__| |  /  /\  \   | |_| |  |  |/  /          
                |  |  |   |  __  | /  /__\  \  |    /   |      \           
                |  |  |   | |  | | |   __   |  |    \   |  |\   \          
                \     /   | |  | | |  |  |  |  | |\  \  |  | \   \       
                 \___/    |_|  |_| |__|  |__|  |_| \__\ |__|  \__/        
                                                                              
                      - O R C A' S   B I G   F R I E N D -                    
                                      &                                       
                       - I N T E G R A L  F E E D E R -                       
                                                                              
 v1 FN, 2020, v2 2021, v3 2022-2024                                           
------------------------------------------------------------------------------


----------------------
SHARK INTEGRAL PACKAGE
----------------------

Number of atoms                             ...     12
Number of basis functions                   ...     72
Number of shells                            ...     40
Maximum angular momentum                    ...      2
Integral batch strategy                     ... SHARK/LIBINT Hybrid
RI-J (if used) integral strategy            ... SPLIT-RIJ (Revised 2003 algorithm where possible)
Printlevel                                  ...      1
Contraction scheme used                     ... SEGMENTED contraction
Prescreening option                         ... SCHWARTZ
   Thresh                                   ... 2.500e-11
   Tcut                                     ... 2.500e-12
   Tpresel                                  ... 2.500e-12 
Coulomb Range Separation                    ... NOT USED
Exchange Range Separation                   ... NOT USED
Multipole approximations                    ... NOT USED
Finite Nucleus Model                        ... NOT USED
CABS basis                                  ... NOT available
Auxiliary Coulomb fitting basis             ... NOT available
Auxiliary J/K fitting basis                 ... NOT available
Auxiliary Correlation fitting basis         ... NOT available
Auxiliary 'external' fitting basis          ... NOT available

Checking pre-screening integrals            ... done (  0.0 sec) Dimension = 40
Check shell pair data                       ... done (  0.0 sec)
Shell pair information
Shell pair cut-off parameter TPreSel        ...   2.5e-12
Total number of shell pairs                 ...       820
Shell pairs after pre-screening             ...       761
Total number of primitive shell pairs       ...      4386
Primitive shell pairs kept                  ...      2661
          la=0 lb=0:    373 shell pairs
          la=1 lb=0:    209 shell pairs
          la=1 lb=1:     34 shell pairs
          la=2 lb=0:    103 shell pairs
          la=2 lb=1:     32 shell pairs
          la=2 lb=2:     10 shell pairs

Calculating one electron integrals          ... done (  0.0 sec)
Calculating Nuclear repulsion               ... done (  0.0 sec) ENN=    133.226557471645 Eh

Diagonalization of the overlap matrix:
Smallest eigenvalue                        ... 3.025e-02
Time for diagonalization                   ...    0.002 sec
Threshold for overlap eigenvalues          ... 1.000e-07
Number of eigenvalues below threshold      ... 0
Time for construction of square roots      ...    0.005 sec
Total time needed                          ...    0.010 sec

-------------------
DFT GRID GENERATION
-------------------

General Integration Accuracy     IntAcc      ... 4.388
Radial Grid Type                 RadialGrid  ... OptM3 with GC (2021)
Angular Grid (max. ang.)         AngularGrid ... 4 (Lebedev-302)
Angular grid pruning method      GridPruning ... 4 (adaptive)
Weight generation scheme         WeightScheme... mBecke (2022)
Basis function cutoff            BFCut       ... 1.0000e-11
Integration weight cutoff        WCut        ... 1.0000e-14
Partially contracted basis set               ... off
Rotationally invariant grid construction     ... off
Angular grids for H and He will be reduced by one unit

Total number of grid points                  ...    50680
Total number of batches                      ...      799
Average number of points per batch           ...       63
Average number of grid points per atom       ...     4223
Initializing property integral containers    ... done (  0.0 sec)

SHARK setup successfully completed in   0.5 seconds

Maximum memory used throughout the entire STARTUP-calculation: 17.5 MB
-------------------------------------------------------------------------------
                                 ORCA GUESS
                   Start orbitals & Density for SCF / CASSCF
-------------------------------------------------------------------------------

------------
SCF SETTINGS
------------
Hamiltonian:
 Ab initio Hamiltonian  Method          .... Hartree-Fock(GTOs)


General Settings:
 Integral files         IntName         .... frag
 Hartree-Fock type      HFTyp           .... RHF
 Total Charge           Charge          ....    0
 Multiplicity           Mult            ....    1
 Number of Electrons    NEL             ....   40
 Basis Dimension        Dim             ....   72
 Nuclear Repulsion      ENuc            ....    133.2265574716 Eh

Convergence Acceleration:
 AO-DIIS                CNVDIIS         .... on
   Start iteration      DIISMaxIt       ....    12
   Startup error        DIISStart       ....  0.200000
   # of expansion vecs  DIISMaxEq       ....     5
   Bias factor          DIISBfac        ....   1.050
   Max. coefficient     DIISMaxC        ....  10.000
 MO-DIIS                CNVKDIIS        .... off
 Trust-Rad. Augm. Hess. CNVTRAH         .... auto
   Auto Start mean grad. ratio tolernc. ....  1.125000
   Auto Start start iteration           ....    50
   Auto Start num. interpolation iter.  ....    10
   Max. Number of Micro iterations      ....    24
   Max. Number of Macro iterations      .... Maxiter - #DIIS iter
   Number of Davidson start vectors     ....     2
   Converg. threshold    (grad. norm)   ....   1.000e-05
   Grad. Scal. Fac. for Micro threshold ....   0.100
   Minimum threshold for Micro iter.    ....   1.000e-02
   NR start threshold (gradient norm)   ....   1.000e-04
   Initial trust radius                 ....   0.400
   Minimum AH scaling param. (alpha)    ....   1.000
   Maximum AH scaling param. (alpha)    .... 1000.000
   Quad. conv. algorithm                .... NR
   White noise on init. David. guess    .... on
   Maximum white noise                  ....   0.010
   Pseudo random numbers                .... off
   Inactive MOs                         .... canonical
   Orbital update algorithm             .... Taylor
   Preconditioner                       .... Diag
   Full preconditioner red. dimension   ....   250
 SOSCF                  CNVSOSCF        .... on
   Start iteration      SOSCFMaxIt      ....   150
   Startup grad/error   SOSCFStart      ....  0.003300
   Hessian update       SOSCFHessUp     .... L-BFGS
 Level Shifting         CNVShift        .... on
   Level shift para.    LevelShift      ....    0.2500
   Turn off err/grad.   ShiftErr        ....    0.0010
 Zerner damping         CNVZerner       .... off
 Static damping         CNVDamp         .... on
   Fraction old density DampFac         ....    0.7000
   Max. Damping (<1)    DampMax         ....    0.9800
   Min. Damping (>=0)   DampMin         ....    0.0000
   Turn off err/grad.   DampErr         ....    0.1000

SCF Procedure:
 Maximum # iterations   MaxIter         ....   125
 SCF integral mode      SCFMode         .... Direct
   Integral package                     .... SHARK and LIBINT hybrid scheme
 Reset frequency        DirectResetFreq ....    20
 Integral Threshold     Thresh          ....  2.500e-11 Eh
 Primitive CutOff       TCut            ....  2.500e-12 Eh

Convergence Tolerance:
 Convergence Check Mode ConvCheckMode   .... Total+1el-Energy
 Convergence forced     ConvForced      .... 0
 Energy Change          TolE            ....  1.000e-08 Eh
 1-El. energy change                    ....  1.000e-05 Eh
 Orbital Gradient       TolG            ....  1.000e-05
 Orbital Rotation angle TolX            ....  1.000e-05
 DIIS Error             TolErr          ....  5.000e-07

------------------------------
INITIAL GUESS: MODEL POTENTIAL
------------------------------
Loading Hartree-Fock densities                     ... done
Calculating cut-offs                               ... done
Initializing the effective Hamiltonian             ... done
Setting up the integral package (SHARK)            ... done
Starting the Coulomb interaction                   ... done (   0.0 sec)
Making the grid                                    ... done (   0.1 sec)
Mapping shells                                     ... done
Starting the XC term evaluation                    ... done (   0.0 sec)
Transforming the Hamiltonian                       ... done (   0.0 sec)
Diagonalizing the Hamiltonian                      ... done (   0.0 sec)
Back transforming the eigenvectors                 ... done (   0.0 sec)
Now organizing SCF variables                       ... done
                      ------------------
                      INITIAL GUESS DONE (   0.2 sec)
                      ------------------
             **** ENERGY FILE WAS UPDATED (frag.en.tmp) ****
Finished Guess after   0.3 sec
Maximum memory used throughout the entire GUESS-calculation: 7.5 MB

-------------------------------------------------------------------------------------------
                                      ORCA LEAN-SCF
                              memory conserving SCF solver
-------------------------------------------------------------------------------------------

----------------------------------------D-I-I-S--------------------------------------------
Iteration    Energy (Eh)           Delta-E    RMSDP     MaxDP     DIISErr   Damp  Time(sec)
-------------------------------------------------------------------------------------------
               ***  Starting incremental Fock matrix formation  ***
    1    -303.6081211211292157     0.00e+00  6.11e-03  7.38e-02  3.33e-01  0.700   0.2
    2    -303.7591415735791429    -1.51e-01  4.16e-03  5.09e-02  2.04e-01  0.700   0.2
                               ***Turning on AO-DIIS***
    3    -303.8410256259910511    -8.19e-02  1.67e-03  2.21e-02  1.15e-01  0.700   0.2
    4    -303.8906050585631533    -4.96e-02  1.03e-03  1.42e-02  7.78e-02  0.700   0.2
    5    -303.9233969663122252    -3.28e-02  2.42e-03  3.38e-02  5.53e-02  0.000   0.2
                              *** Initializing SOSCF ***
---------------------------------------S-O-S-C-F--------------------------------------
Iteration    Energy (Eh)           Delta-E    RMSDP     MaxDP     MaxGrad    Time(sec)
--------------------------------------------------------------------------------------
    6    -303.9965766355111896    -7.32e-02  1.92e-04  2.06e-03  3.19e-03     0.2
               *** Restarting incremental Fock matrix formation ***
    7    -303.9966390399856664    -6.24e-05  1.15e-04  9.48e-04  7.55e-04     0.2
    8    -303.9966510078621127    -1.20e-05  7.96e-05  6.08e-04  3.01e-04     0.2
    9    -303.9966531120563786    -2.10e-06  1.17e-05  1.10e-04  8.88e-05     0.2
   10    -303.9966532358363338    -1.24e-07  1.50e-06  1.80e-05  1.08e-05     0.1
   11    -303.9966532379573891    -2.12e-09  6.79e-07  8.81e-06  2.58e-06     0.1
                 **** Energy Check signals convergence ****

               *****************************************************
               *                     SUCCESS                       *
               *           SCF CONVERGED AFTER  11 CYCLES          *
               *****************************************************

             **** ENERGY FILE WAS UPDATED (frag.en.tmp) ****

----------------
TOTAL SCF ENERGY
----------------

Total Energy       :       -303.99665323795739 Eh           -8272.16948 eV

Components:
Nuclear Repulsion  :        133.22655747164453 Eh            3625.27893 eV
Electronic Energy  :       -437.22321070960191 Eh          -11897.44842 eV
One Electron Energy:       -684.06466610433154 Eh          -18614.34590 eV
Two Electron Energy:        246.84145539472962 Eh            6716.89748 eV

Virial components:
Potential Energy   :       -609.54560340599414 Eh          -16586.57911 eV
Kinetic Energy     :        305.54895016803670 Eh            8314.40963 eV
Virial Ratio       :          1.99491964567633

---------------
SCF CONVERGENCE
---------------

  Last Energy change         ...    2.1211e-09  Tolerance :   1.0000e-08
  Last MAX-Density change    ...    8.8147e-06  Tolerance :   1.0000e-07
  Last RMS-Density change    ...    6.7937e-07  Tolerance :   5.0000e-09
  Last DIIS Error            ...    3.1887e-03  Tolerance :   5.0000e-07
  Last Orbital Gradient      ...    2.5817e-06  Tolerance :   1.0000e-05
  Last Orbital Rotation      ...    2.6096e-06  Tolerance :   1.0000e-05


----------------
ORBITAL ENERGIES
----------------

  NO   OCC          E(Eh)            E(eV) 
   0   2.0000     -20.574386      -559.8575 
   1   2.0000     -20.564916      -559.5998 
   2   2.0000     -20.515932      -558.2669 
   3   2.0000     -20.505786      -557.9908 
   4   2.0000      -1.429842       -38.9080 
   5   2.0000      -1.417430       -38.5702 
   6   2.0000      -1.369471       -37.2652 
   7   2.0000      -1.361430       -37.0464 
   8   2.0000      -0.798643       -21.7322 
   9   2.0000      -0.774860       -21.0850 
  10   2.0000      -0.734272       -19.9805 
  11   2.0000      -0.730979       -19.8909 
  12   2.0000      -0.633980       -17.2515 
  13   2.0000      -0.620335       -16.8802 
  14   2.0000      -0.569566       -15.4987 
  15   2.0000      -0.553853       -15.0711 
  16   2.0000      -0.541860       -14.7448 
  17   2.0000      -0.532951       -14.5023 
  18   2.0000      -0.484111       -13.1733 
  19   2.0000      -0.476275       -12.9601 
  20   0.0000       0.188526         5.1300 
  21   0.0000       0.232015         6.3134 
  22   0.0000       0.273266         7.4360 
  23   0.0000       0.285474         7.7681 
  24   0.0000       0.308503         8.3948 
  25   0.0000       0.355892         9.6843 
  26   0.0000       0.414135        11.2692 
  27   0.0000       0.468410        12.7461 
  28   0.0000       0.979108        26.6429 
  29   0.0000       1.047293        28.4983 
  30   0.0000       1.072803        29.1925 
*Only the first 10 virtual orbitals were printed.

                    ********************************
                    * MULLIKEN POPULATION ANALYSIS *
                    ********************************

-----------------------
MULLIKEN ATOMIC CHARGES
-----------------------
   0 O :   -0.932632
   1 H :    0.454143
   2 H :    0.494747
   3 O :   -0.946652
   4 H :    0.504983
   5 H :    0.428083
   6 O :   -0.910452
   7 H :    0.450042
   8 H :    0.445213
   9 O :   -0.900241
  10 H :    0.458827
  11 H :    0.453936
Sum of atomic charges:    0.0000000

--------------------------------
MULLIKEN REDUCED ORBITAL CHARGES
--------------------------------
  0 O s       :     3.854338  s :     3.854338
      pz      :     1.901544  p :     5.046806
      px      :     1.505814
      py      :     1.639447
      dz2     :     0.004267  d :     0.031487
      dxz     :     0.002958
      dyz     :     0.003623
      dx2y2   :     0.012486
      dxy     :     0.008153

  1 H s       :     0.545857  s :     0.545857

  2 H s       :     0.505253  s :     0.505253

  3 O s       :     3.853492  s :     3.853492
      pz      :     1.915632  p :     5.060449
      px      :     1.419689
      py      :     1.725127
      dz2     :     0.003448  d :     0.032711
      dxz     :     0.006134
      dyz     :     0.005429
      dx2y2   :     0.009690
      dxy     :     0.008011

  4 H s       :     0.495017  s :     0.495017

  5 H s       :     0.571917  s :     0.571917

  6 O s       :     3.847765  s :     3.847765
      pz      :     1.463820  p :     5.029740
      px      :     1.735494
      py      :     1.830426
      dz2     :     0.015044  d :     0.032947
      dxz     :     0.004308
      dyz     :     0.001158
      dx2y2   :     0.002585
      dxy     :     0.009851

  7 H s       :     0.549958  s :     0.549958

  8 H s       :     0.554787  s :     0.554787

  9 O s       :     3.843282  s :     3.843282
      pz      :     1.517866  p :     5.024859
      px      :     1.647192
      py      :     1.859801
      dz2     :     0.006737  d :     0.032099
      dxz     :     0.010360
      dyz     :     0.002629
      dx2y2   :     0.005809
      dxy     :     0.006564

 10 H s       :     0.541173  s :     0.541173

 11 H s       :     0.546064  s :     0.546064



                     *******************************
                     * LOEWDIN POPULATION ANALYSIS *
                     *******************************

----------------------
LOEWDIN ATOMIC CHARGES
----------------------
   0 O :   -0.611208
   1 H :    0.320761
   2 H :    0.316261
   3 O :   -0.645738
   4 H :    0.301154
   5 H :    0.307600
   6 O :   -0.633684
   7 H :    0.306572
   8 H :    0.314632
   9 O :   -0.615971
  10 H :    0.321022
  11 H :    0.318599

-------------------------------
LOEWDIN REDUCED ORBITAL CHARGES
-------------------------------
  0 O s       :     3.541946  s :     3.541946
      pz      :     1.900230  p :     5.029861
      px      :     1.499908
      py      :     1.629723
      dz2     :     0.004835  d :     0.039401
      dxz     :     0.003951
      dyz     :     0.004210
      dx2y2   :     0.015935
      dxy     :     0.010470

  1 H s       :     0.679239  s :     0.679239

  2 H s       :     0.683739  s :     0.683739

  3 O s       :     3.544302  s :     3.544302
      pz      :     1.918847  p :     5.061008
      px      :     1.424080
      py      :     1.718080
      dz2     :     0.003968  d :     0.040428
      dxz     :     0.007791
      dyz     :     0.005635
      dx2y2   :     0.012796
      dxy     :     0.010238

  4 H s       :     0.698846  s :     0.698846

  5 H s       :     0.692400  s :     0.692400

  6 O s       :     3.551157  s :     3.551157
      pz      :     1.464248  p :     5.041267
      px      :     1.743191
      py      :     1.833829
      dz2     :     0.019669  d :     0.041260
      dxz     :     0.005417
      dyz     :     0.001614
      dx2y2   :     0.002675
      dxy     :     0.011885

  7 H s       :     0.693428  s :     0.693428

  8 H s       :     0.685368  s :     0.685368

  9 O s       :     3.548399  s :     3.548399
      pz      :     1.518454  p :     5.026982
      px      :     1.652391
      py      :     1.856138
      dz2     :     0.009026  d :     0.040589
      dxz     :     0.013221
      dyz     :     0.003698
      dx2y2   :     0.006523
      dxy     :     0.008121

 10 H s       :     0.678978  s :     0.678978

 11 H s       :     0.681401  s :     0.681401



                      *****************************
                      * MAYER POPULATION ANALYSIS *
                      *****************************

  NA   - Mulliken gross atomic population
  ZA   - Total nuclear charge
  QA   - Mulliken gross atomic charge
  VA   - Mayer's total valence
  BVA  - Mayer's bonded valence
  FA   - Mayer's free valence

  ATOM       NA         ZA         QA         VA         BVA        FA
  0 O      8.9326     8.0000    -0.9326     1.5483     1.5483    -0.0000
  1 H      0.5459     1.0000     0.4541     0.7628     0.7628     0.0000
  2 H      0.5053     1.0000     0.4947     0.7335     0.7335     0.0000
  3 O      8.9467     8.0000    -0.9467     1.4989     1.4989    -0.0000
  4 H      0.4950     1.0000     0.5050     0.7286     0.7286    -0.0000
  5 H      0.5719     1.0000     0.4281     0.7828     0.7828    -0.0000
  6 O      8.9105     8.0000    -0.9105     1.5316     1.5316     0.0000
  7 H      0.5500     1.0000     0.4500     0.7788     0.7788     0.0000
  8 H      0.5548     1.0000     0.4452     0.7685     0.7685     0.0000
  9 O      8.9002     8.0000    -0.9002     1.5633     1.5633     0.0000
 10 H      0.5412     1.0000     0.4588     0.7579     0.7579     0.0000
 11 H      0.5461     1.0000     0.4539     0.7594     0.7594     0.0000

  Mayer bond orders larger than 0.100000
B(  0-O ,  1-H ) :   0.7687 B(  0-O ,  2-H ) :   0.7070 B(  3-O ,  4-H ) :   0.6995 
B(  3-O ,  5-H ) :   0.7910 B(  6-O ,  7-H ) :   0.7529 B(  6-O ,  8-H ) :   0.7770 
B(  9-O , 10-H ) :   0.7656 B(  9-O , 11-H ) :   0.7655 

-------
TIMINGS
-------

Total SCF time: 0 days 0 hours 0 min 2 sec 

Total time                  ....       2.074 sec
Sum of individual times     ....       1.999 sec  ( 96.4%)

SCF preparation             ....       0.067 sec  (  3.2%)
Fock matrix formation       ....       1.623 sec  ( 78.3%)
  Startup                   ....       0.019 sec  (  1.2% of F)
  Coulomb+Exchange Fock     ....       1.541 sec  ( 94.9% of F)
Diagonalization             ....       0.000 sec  (  0.0%)
Density matrix formation    ....       0.081 sec  (  3.9%)
Total Energy calculation    ....       0.021 sec  (  1.0%)
Population analysis         ....       0.023 sec  (  1.1%)
Orbital Transformation      ....       0.024 sec  (  1.2%)
Orbital Orthonormalization  ....       0.000 sec  (  0.0%)
DIIS solution               ....       0.100 sec  (  4.8%)
SOSCF solution              ....       0.061 sec  (  3.0%)
Finished LeanSCF after   2.1 sec

Maximum memory used throughout the entire LEANSCF-calculation: 8.4 MB

-------------------------   --------------------
FINAL SINGLE POINT ENERGY      -303.996653237957
-------------------------   --------------------

------------------------------------------------------------------------------
                         ORCA SCF GRADIENT CALCULATION
------------------------------------------------------------------------------

Nuc. rep. gradient        (SHARK) ... done (  0.0 sec)
HCore & Overlap gradient  (SHARK) ... done (  0.1 sec)
Two-electron gradient     (SHARK) ... done (  0.7 sec)

------------------
CARTESIAN GRADIENT
------------------

   1   O   :    0.043594653   -0.109775828    0.009078996
   2   H   :   -0.106997236    0.015543311   -0.040390477
   3   H   :    0.059584019    0.098007713    0.031599151
   4   O   :   -0.039612370   -0.105720876    0.067475668
   5   H   :   -0.063895534    0.090291727   -0.030262731
   6   H   :    0.105386853    0.011379473   -0.034874301
   7   O   :   -0.089343249    0.058854320    0.069313533
   8   H   :    0.008964187    0.006624901   -0.113862893
   9   H   :    0.080619098   -0.066802592    0.042865831
  10   O   :   -0.114756333   -0.001024725    0.044474211
  11   H   :    0.087744775    0.046515689    0.056793784
  12   H   :    0.028711137   -0.043893113   -0.102210773

Difference to translation invariance:
           :   -0.0000000000   -0.0000000001   -0.0000000000

Difference to rotation invariance:
           :    0.0000002007   -0.0000000334    0.0000004742

Norm of the Cartesian gradient     ...    0.4098594957
RMS gradient                       ...    0.0683099160
MAX gradient                       ...    0.1147563334

-------
TIMINGS
-------

Total SCF gradient time     ....        0.777 sec

Densities                   ....       0.000 sec  (  0.0%)
One electron gradient       ....       0.051 sec  (  6.5%)
Two electron gradient       ....       0.726 sec  ( 93.4%)

Maximum memory used throughout the entire SCFGRAD-calculation: 14.2 MB

------------------------------------------------------------------------------
                              ORCA PROPERTY CALCULATIONS
------------------------------------------------------------------------------

GBWName                                 ... frag.gbw
Number of atoms                         ...     12
Number of basis functions               ...     72
Max core memory                         ...   1024 MB

Electric properties:
Dipole moment                           ... YES
Quadrupole moment                       ...  NO
Static polarizability (Dipole/Dipole)   ...  NO
Static polarizability (Dipole/Quad.)    ...  NO
Static polarizability (Quad./Quad.)     ...  NO
Static polarizability (Velocity)        ...  NO

Atomic electric properties:
Dipole moment                           ...  NO
Quadrupole moment                       ...  NO
Static polarizability                   ...  NO

Choice of electric origin               ... Center of mass
Position of electric origin             ...    38.959750    89.566053    75.088469

General magnetic properties:
Magnetizability                         ...  NO

EPR properties:
g-Tensor (aka g-matrix)                 ...  NO
Zero-Field splitting spin-orbit         ...  NO
Zero-field splitting spin-spin          ...  NO
Hyperfine couplings                     ...  NO (   0 nuclei)
Quadrupole couplings                    ...  NO (   0 nuclei)
Contact density                         ...  NO (   0 nuclei)

NMR properties:
Chemical shifts                         ...  NO (   0 nuclei)
Spin-rotation constants                 ...  NO (   0 nuclei)
Spin-spin couplings                     ...  NO (   0 nuclei,    0 pairs)

Choice of magnetic origin               ... GIAO
Position of magnetic origin             ...     0.000000     0.000000     0.000000

Properties with geometric perturbations:
SCF Hessian                             ...  NO
IR spectrum                             ...  NO
VCD spectrum                            ...  NO
X-ray spectroscopy properties:
SCF XES/XAS/RIXS spectra                ...  NO


-------------
DIPOLE MOMENT
-------------

Method             : SCF
Type of density    : Electron Density
Multiplicity       :   1
Irrep              :   0
Energy             :  -303.9966532379573891 Eh
Relativity type    : 
Basis              : AO
                                X                 Y                 Z
Electronic contribution:      0.048372718      -0.142522174       0.031044902
Nuclear contribution   :     -1.412516001      -1.141049903       1.353951106
                        -----------------------------------------
Total Dipole Moment    :     -1.364143282      -1.283572077       1.384996008
                        -----------------------------------------
Magnitude (a.u.)       :      2.329518859
Magnitude (Debye)      :      5.921166376



--------------------
Rotational spectrum 
--------------------
 
Rotational constants in cm-1:             0.099851             0.073786             0.053572 
Rotational constants in MHz :          2993.461933          2212.048390          1606.057955 

Dipole components along the rotational axes: 
x,y,z [a.u.] :    -2.310048     0.221162    -0.203532 
x,y,z [Debye]:    -5.871675     0.562149    -0.517337 

 

Dipole moment calculation done in   0.0 sec 

Maximum memory used throughout the entire PROP-calculation: 2.9 MB

--------------------------------
SUGGESTED CITATIONS FOR THIS RUN
--------------------------------

Below you find a list of papers that are relevant to this ORCA run
We neither can nor want to force you to cite these papers, but we appreciate if you do
You receive ORCA, which is the product of decades of hard work by many enthusiastic individuals, for free
The only thing we kindly ask in return is that you cite our papers,
We deeply appreciate it, if you show your appreciation for ORCA by not just citing the generic ORCA reference.

Please note that relegating all ORCA citations to the supporting information does *not* help us.
SI sections are not indexed - citations you put there will not count into any citation statistics
But we need these citations in order to attract the funding resources that allow us to do what we are doing

Therefore, if you are a happy ORCA user, please consider citing a few of the papers listed below in the main body of your paper

In addition to the list printed below, the program has created the file frag.bibtex that contains the list in bibtex format
You can import this file easily into all common literature databanks and citation aid programs


List of essential papers. We consider these as the minimum necessary citations

  1. Neese,F.
     Software update: the ORCA program system, version 5.0
     WIRES Comput. Molec. Sci., 2022 12(1)e1606
     doi.org/10.1002/wcms.1606

List of papers to cite with high priority. The work reported in these papers was absolutely
necessary for this run to complete.
Our perspective: the developers of density functionals and basis sets usually get cited in chemistry papers
Good! But without the algorithms to do something with them, the functionals or basis sets would not do anything.
Hence, in our opinion, the algorithm design and method developments papers are equally worthy of getting cited

  1. Neese,F.
     The SHARK Integral Generation and Digestion System
     J. Comp. Chem., 2022  1-16
     doi.org/10.1002/jcc.26942

List of suggested additional citations. These are papers that are important in the 'surrounding' of 
of this run, or papers that preceded the highly important papers. If you like your results we are grateful for a citation.

  1. Neese,F.
     The ORCA program system
     WIRES Comput. Molec. Sci., 2012 2(1)73-78
     doi.org/10.1002/wcms.81
  2. Neese,F.
     Software update: the ORCA program system, version 4.0
     WIRES Comput. Molec. Sci., 2018 8(1)1-6
     doi.org/10.1002/wcms.1327
  3. Neese,F.; Wennmohs,F.; Becker,U.; Riplinger,C.
     The ORCA quantum chemistry program package
     J. Chem. Phys., 2020 152 Art. No. L224108
     doi.org/10.1063/5.0004608

List of optional additional citations

  1. Neese,F.
     Approximate second-order SCF convergence for spin unrestricted wavefunctions
     Chem. Phys. Lett., 2000 325(1-3)93-98
     doi.org/10.1016/s0009-2614(00)00662-x

Timings for individual modules:

Sum of individual times          ...        3.838 sec (=   0.064 min)
Startup calculation              ...        0.548 sec (=   0.009 min)  14.3 %
SCF iterations                   ...        2.393 sec (=   0.040 min)  62.4 %
Property calculations            ...        0.055 sec (=   0.001 min)   1.4 %
SCF Gradient evaluation          ...        0.841 sec (=   0.014 min)  21.9 %
                             ****ORCA TERMINATED NORMALLY****
TOTAL RUN TIME: 0 days 0 hours 0 minutes 4 seconds 44 msec
