
                                 *****************
                                 * O   R   C   A *
                                 *****************

                                            #,                                       
                                            ###                                      
                                            ####                                     
                                            #####                                    
                                            ######                                   
                                           ########,                                 
                                     ,,################,,,,,                         
                               ,,#################################,,                 
                          ,,##########################################,,             
                       ,#########################################, ''#####,          
                    ,#############################################,,   '####,        
                  ,##################################################,,,,####,       
                ,###########''''           ''''###############################       
              ,#####''   ,,,,##########,,,,          '''####'''          '####       
            ,##' ,,,,###########################,,,                        '##       
           ' ,,###''''                  '''############,,,                           
         ,,##''                                '''############,,,,        ,,,,,,###''
      ,#''                                            '''#######################'''  
     '                                                          ''''####''''         
             ,#######,   #######,   ,#######,      ##                                
            ,#'     '#,  ##    ##  ,#'     '#,    #''#        ,####,   ,####,        
            ##       ##  ##   ,#'  ##            #'  '#       #'       #'  '#        
            ##       ##  #######   ##           ,######,      #####,   #    #        
            '#,     ,#'  ##    ##  '#,     ,#' ,#      #,     #,   #   #,  ,#        
             '#######'   ##     ##  '#######'  #'      '#     '####' # '####'        



                #########################################################
                #                        -***-                          #
                #          Department of theory and spectroscopy        #
                #                                                       #
                #                      Frank Neese                      #
                #                                                       #
                #     Directorship, Architecture, Infrastructure        #
                #                    SHARK, DRIVERS                     #
                #        Core code/Algorithms in most modules           #
                #                                                       #
                #        Max Planck Institute fuer Kohlenforschung      #
                #                Kaiser Wilhelm Platz 1                 #
                #                 D-45470 Muelheim/Ruhr                 #
                #                      Germany                          #
                #                                                       #
                #                  All rights reserved                  #
                #                        -***-                          #
                #########################################################


                         Program Version 6.0.1  -  RELEASE   -


 With contributions from (in alphabetic order):
[Max-Planck-Institut fuer Kohlenforschung]                               
  Daniel Aravena         : Magnetic Suceptibility                        
  Michael Atanasov       : Ab Initio Ligand Field Theory (pilot matlab implementation)
  Alexander A. Auer      : GIAO ZORA, VPT2 properties, NMR spectrum      
  Ute Becker             : All parallelization in ORCA, NUMFREQ, NUMCALC 
  Giovanni Bistoni       : ED, misc. LED, open-shell LED, HFLD           
  Martin Brehm           : Molecular dynamics                            
  Dmytro Bykov           : pre 5.0 version of the SCF Hessian            
  Marcos Casanova-Páez   : Triplet and SCS-CIS(D). UHF-(DLPNO)-IP/EA/STEOM-CCSD. UHF-CVS-IP/STEOM-CCSD   
  Vijay G. Chilkuri      : MRCI spin determinant printing, contributions to CSF-ICE 
  Pauline Colinet        : FMM embedding                                 
  Dipayan Datta          : RHF DLPNO-CCSD density                        
  Achintya Kumar Dutta   : EOM-CC, STEOM-CC                              
  Nicolas Foglia         : Exact transition moments, OPA infrastructure, MCD improvements    
  Dmitry Ganyushin       : Spin-Orbit,Spin-Spin,Magnetic field MRCI      
  Miquel Garcia-Rates    : C-PCM and meta-GGA Hessian, CCSD/C-PCM, Gaussian charge scheme 
  Tiago L. C. Gouveia    : GS-ROHF, GS-ROCIS                             
  Yang Guo               : DLPNO-NEVPT2, F12-NEVPT2, CIM, IAO-localization        
  Andreas Hansen         : Spin unrestricted coupled pair/coupled cluster methods 
  Ingolf Harden          : AUTO-CI MPn and infrastructure                
  Benjamin Helmich-Paris : MC-RPA, TRAH-(SCF,CASSCF), AVAS, COSX integrals, SCF dyn. polar. 
  Lee Huntington         : MR-EOM, pCC                                   
  Robert Izsak           : Overlap fitted RIJCOSX, COSX-SCS-MP3, EOM     
  Riya Kayal             : Wick's Theorem for AUTO-CI, AUTO-CI UHF-CCSDT 
  Emily Kempfer          : AUTO-CI, RHF CISDT and CCSDT                  
  Christian Kollmar      : KDIIS, OOCD, Brueckner-CCSD(T), CCSD density, CASPT2, CASPT2-K, improved NEVPT2 
  Axel Koslowski         : Symmetry handling                             
  Simone Kossmann        : meta-GGA functionals, TD-DFT gradient, OOMP2, (MP2 Hessian; deprecated post 5.0) 
  Lucas Lang             : DCDCAS                                        
  Marvin Lechner         : AUTO-CI (C++ implementation), FIC-MRCC        
  Spencer Leger          : CASSCF response                               
  Dagmar Lenk            : GEPOL surface, SMD, ORCA-2-JSON               
  Dimitrios Liakos       : Extrapolation schemes; Compound Job, initial MDCI parallelization 
  Dimitrios Manganas     : Further ROCIS development; embedding schemes. LFT, Crystal Embedding 
  Dimitrios Pantazis     : SARC Basis sets                               
  Anastasios Papadopoulos: AUTO-CI, single reference methods and gradients 
  Taras Petrenko         : pre 6.0 DFT Hessian and TD-DFT gradient, (ASA, deprecated), ECA, 1-Electron XAS/XES, NRVS 
  Peter Pinski           : DLPNO-MP2, DLPNO-MP2 Gradient                 
  Christoph Reimann      : Effective Core Potentials                     
  Marius Retegan         : Local ZFS, SOC                                
  Christoph Riplinger    : Optimizer, TS searches, QM/MM, DLPNO-CCSD(T), (RO)-DLPNO pert. Triples 
  Michael Roemelt        : Original ROCIS implementation                 
  Masaaki Saitow         : Open-shell DLPNO-CCSD energy and density      
  Barbara Sandhoefer     : DKH picture change effects                    
  Kantharuban Sivalingam : CASSCF convergence/infrastructure, NEVPT2 and variants, FIC-MRCI 
  Bernardo de Souza      : ESD, SOC TD-DFT                               
  Georgi L. Stoychev     : AutoAux, RI-MP2 NMR, DLPNO-MP2 response, X2C  
  Van Anh Tran           : RI-MP2 g-tensors                              
  Willem Van den Heuvel  : Paramagnetic NMR                              
  Zikuan Wang            : NOTCH, Electric field optimization            
  Frank Wennmohs         : Technical directorship and infrastructure     
  Hang Xu                : AUTO-CI-Response properties                   
                                                                         
[FACCTs GmbH]                                                            
  Markus Bursch, Miquel Garcia-Rates, Christoph Riplinger, Bernardo de Souza, Georgi L. Stoychev 
                                                                 
  APM, Basis sets (HGBS, AHGBS, def-TZVP (Ac-Lr), def2-XVPD (La-Lu)), CI-OPT, improved COSX, DLPNO-Multilevel,           
  DOCKER, DRACO, updates on ESD, GOAT, IRC, LR-CPCM, MBIS, meta-GGA TD-DFT gradient, ML-optimized integration grids, 
  MM, NACMEs, nearIR, NEB, NEB-TS, NL-DFT gradient (VV10), 2- and 3-layer-ONIOM, interface openCOSMO-RS, QMMM,   
  Crystal-QMMM, SF, symmetry and pop. for TD-DFT, r2SCAN hybrids, SOLVATOR                                   
                                                                         
[Other institutions]                                                     
  V. Asgeirsson          : NEB                                           
  Christoph Bannwarth    : sTDA-DFT, sTD-DFT, PBEh-3c, B97-3c, D3        
  Sebastian Ehlert       : rSCAN, r2SCAN, r2SCAN-3c, D4, dhf basis sets  
  Marvin Friede          : D4 for Fr, Ra, Ac-Lr                          
  Lars Goerigk           : TD-DFT with DH, B97 family of functionals     
  Stefan Grimme          : VdW corrections, initial TS optimization, DFT functionals, gCP, sTDA/sTD-DF 
  Waldemar Hujo          : DFT-NL                                        
  H. Jonsson             : NEB                                           
  Holger Kruse           : gCP                                           
  Marcel Mueller         : wB97X-3c, vDZP basis set                      
  Hagen Neugebauer       : wr2SCAN                                       
  Tobias Risthaus        : range-separated hybrid DFT                    
  Lukas Wittmann         : regularized MP2, r2SCAN double-hybrids, wr2SCAN        
                                                                         
We gratefully acknowledge several colleagues who have allowed us to      
interface, adapt or use parts of their codes:                            
  Ed Valeev, F. Pavosevic, A. Kumar             : LibInt (2-el integral package), F12 methods 
  Garnet Chan, S. Sharma, J. Yang, R. Olivares  : DMRG                   
  Ulf Ekstrom                                   : XCFun DFT Library      
  Mihaly Kallay                                 : mrcc  (arbitrary order and MRCC methods)
  Frank Weinhold                                : gennbo (NPA and NBO analysis)           
  Simon Mueller                                 : openCOSMO-RS                            
  Christopher J. Cramer and Donald G. Truhlar   : smd solvation model                     
  S Lehtola, MJT Oliveira, MAL Marques          : LibXC Library                           
  Liviu Ungur et al                             : ANISO software                          


 Your calculation uses the libint2 library for the computation of 2-el integrals
 For citations please refer to: http://libint.valeyev.net

 Your ORCA version has been built with support for libXC version: 6.2.2
 For citations please refer to: https://libxc.gitlab.io

 This ORCA versions uses:
   CBLAS   interface :  Fast vector & matrix operations
   LAPACKE interface :  Fast linear algebra routines
   SCALAPACK package :  Parallel linear algebra routines
   Shared memory     :  Shared parallel matrices
   BLAS/LAPACK       :  OpenBLAS 0.3.27  USE64BITINT DYNAMIC_ARCH NO_AFFINITY SkylakeX SINGLE_THREADED
        Core in use  :  SkylakeX
   Copyright (c) 2011-2014, The OpenBLAS Project


================================================================================

----- Orbital basis set information -----
Your calculation utilizes the basis: 6-31G*
   H-He, Li-Ne : W. J. Hehre, R. Ditchfield and J.A. Pople, J. Chem. Phys. 56, 2257 (1972).
                 Note: He and Ne are unpublished basis sets taken from the Gaussian program.
                 Note: Li and B from J. D. Dill and J. A. Pople, J. Chem. Phys. 62, 2921 (1975).
   Na - Ar     : M. M. Francl, W. J. Pietro, W. J. Hehre, J. S. Binkley, M. S. Gordon, 
                 D. J. DeFrees and J. A. Pople, J. Chem. Phys. 77, 3654 (1982).
   K - Zn      : V. A. Rassolov, J. A. Pople, M. A. Ratner, and T. L. Windus, J. Chem. Phys. 109, 1223 (1998).

================================================================================
                                        WARNINGS
                       Please study these warnings very carefully!
================================================================================


================================================================================
                                       INPUT FILE
================================================================================
NAME = frag.inp
|  1> !HF 6-31G* EnGrad
|  2> %pal nprocs 1 end
|  3> *xyz 0 1
|  4> O 20.35232000 49.63574000 40.01023000
|  5> H 20.79050000 48.92392000 40.26012000
|  6> H 19.54326000 49.49202000 40.30334000
|  7> O 21.78987000 47.25010000 37.48256000
|  8> H 21.67133000 47.22017000 38.34638000
|  9> H 21.14108000 47.76263000 37.20411000
| 10> O 19.10373000 45.58535000 40.48424000
| 11> H 18.38270000 45.25544000 40.12036000
| 12> H 18.82331000 45.89664000 41.24949000
| 13> O 22.25294000 44.28778000 39.87163000
| 14> H 22.68414000 43.83080000 40.47691000
| 15> H 22.81575000 44.91633000 39.64956000
| 16> *
| 17> 
| 18>                          ****END OF INPUT****
================================================================================

                     *******************************
                     * Energy+Gradient Calculation *
                     *******************************

---------------------------------
CARTESIAN COORDINATES (ANGSTROEM)
---------------------------------
  O     20.352320   49.635740   40.010230
  H     20.790500   48.923920   40.260120
  H     19.543260   49.492020   40.303340
  O     21.789870   47.250100   37.482560
  H     21.671330   47.220170   38.346380
  H     21.141080   47.762630   37.204110
  O     19.103730   45.585350   40.484240
  H     18.382700   45.255440   40.120360
  H     18.823310   45.896640   41.249490
  O     22.252940   44.287780   39.871630
  H     22.684140   43.830800   40.476910
  H     22.815750   44.916330   39.649560

----------------------------
CARTESIAN COORDINATES (A.U.)
----------------------------
  NO LB      ZA    FRAG     MASS         X           Y           Z
   0 O     8.0000    0    15.999   38.460311   93.797955   75.608377
   1 H     1.0000    0     1.008   39.288351   92.452810   76.080601
   2 H     1.0000    0     1.008   36.931409   93.526364   76.162275
   3 O     8.0000    0    15.999   41.176887   89.289749   70.831773
   4 H     1.0000    0     1.008   40.952879   89.233189   72.464156
   5 H     1.0000    0     1.008   39.950851   90.258290   70.305579
   6 O     8.0000    0    15.999   36.100818   86.143827   76.504126
   7 H     1.0000    0     1.008   34.738269   85.520388   75.816493
   8 H     1.0000    0     1.008   35.570901   86.732080   77.950239
   9 O     8.0000    0    15.999   42.051962   83.691775   75.346461
  10 H     1.0000    0     1.008   42.866812   82.828208   76.490275
  11 H     1.0000    0     1.008   43.115519   84.879563   74.926810

--------------------------------
INTERNAL COORDINATES (ANGSTROEM)
--------------------------------
 O      0   0   0     0.000000000000     0.00000000     0.00000000
 H      1   0   0     0.872430190273     0.00000000     0.00000000
 H      1   2   0     0.872437386922   103.59919813     0.00000000
 O      2   1   3     3.393413229022   108.41619438   115.19435551
 H      4   2   1     0.872429096775    33.53678511   194.84682685
 H      4   2   1     0.872439033687    75.66802933   340.40737457
 O      5   4   2     3.719630569290   132.68352841   105.44395767
 H      7   5   4     0.872429666735   119.79994743   348.29022196
 H      7   5   4     0.872435901944   124.69375762   211.73664810
 O      5   4   2     3.356124083925   117.15578849   176.14439446
 H     10   5   4     0.872426523439   149.16283161   122.62062527
 H     10   5   4     0.872436406565    50.70030800    83.72012381

---------------------------
INTERNAL COORDINATES (A.U.)
---------------------------
 O      0   0   0     0.000000000000     0.00000000     0.00000000
 H      1   0   0     1.648654130581     0.00000000     0.00000000
 H      1   2   0     1.648667730277   103.59919813     0.00000000
 O      2   1   3     6.412621662077   108.41619438   115.19435551
 H      4   2   1     1.648652064169    33.53678511   194.84682685
 H      4   2   1     1.648670842211    75.66802933   340.40737457
 O      5   4   2     7.029083095321   132.68352841   105.44395767
 H      7   5   4     1.648653141238   119.79994743   348.29022196
 H      7   5   4     1.648664924074   124.69375762   211.73664810
 O      5   4   2     6.342155390075   117.15578849   176.14439446
 H     10   5   4     1.648647201269   149.16283161   122.62062527
 H     10   5   4     1.648665877670    50.70030800    83.72012381

---------------------
BASIS SET INFORMATION
---------------------
There are 2 groups of distinct atoms

 Group   1 Type O   : 10s4p1d contracted to 3s2p1d pattern {631/31/1}
 Group   2 Type H   : 4s contracted to 2s pattern {31}

Atom   0O    basis set group =>   1
Atom   1H    basis set group =>   2
Atom   2H    basis set group =>   2
Atom   3O    basis set group =>   1
Atom   4H    basis set group =>   2
Atom   5H    basis set group =>   2
Atom   6O    basis set group =>   1
Atom   7H    basis set group =>   2
Atom   8H    basis set group =>   2
Atom   9O    basis set group =>   1
Atom  10H    basis set group =>   2
Atom  11H    basis set group =>   2
------------------------------------------------------------------------------
                             ORCA STARTUP CALCULATIONS
------------------------------------------------------------------------------
------------------------------------------------------------------------------
                   ___                                                        
                  /   \      - P O W E R E D   B Y -                         
                 /     \                                                     
                 |  |  |   _    _      __       _____    __    __             
                 |  |  |  | |  | |    /  \     |  _  \  |  |  /  |          
                  \  \/   | |  | |   /    \    | | | |  |  | /  /          
                 / \  \   | |__| |  /  /\  \   | |_| |  |  |/  /          
                |  |  |   |  __  | /  /__\  \  |    /   |      \           
                |  |  |   | |  | | |   __   |  |    \   |  |\   \          
                \     /   | |  | | |  |  |  |  | |\  \  |  | \   \       
                 \___/    |_|  |_| |__|  |__|  |_| \__\ |__|  \__/        
                                                                              
                      - O R C A' S   B I G   F R I E N D -                    
                                      &                                       
                       - I N T E G R A L  F E E D E R -                       
                                                                              
 v1 FN, 2020, v2 2021, v3 2022-2024                                           
------------------------------------------------------------------------------


----------------------
SHARK INTEGRAL PACKAGE
----------------------

Number of atoms                             ...     12
Number of basis functions                   ...     72
Number of shells                            ...     40
Maximum angular momentum                    ...      2
Integral batch strategy                     ... SHARK/LIBINT Hybrid
RI-J (if used) integral strategy            ... SPLIT-RIJ (Revised 2003 algorithm where possible)
Printlevel                                  ...      1
Contraction scheme used                     ... SEGMENTED contraction
Prescreening option                         ... SCHWARTZ
   Thresh                                   ... 2.500e-11
   Tcut                                     ... 2.500e-12
   Tpresel                                  ... 2.500e-12 
Coulomb Range Separation                    ... NOT USED
Exchange Range Separation                   ... NOT USED
Multipole approximations                    ... NOT USED
Finite Nucleus Model                        ... NOT USED
CABS basis                                  ... NOT available
Auxiliary Coulomb fitting basis             ... NOT available
Auxiliary J/K fitting basis                 ... NOT available
Auxiliary Correlation fitting basis         ... NOT available
Auxiliary 'external' fitting basis          ... NOT available

Checking pre-screening integrals            ... done (  0.0 sec) Dimension = 40
Check shell pair data                       ... done (  0.0 sec)
Shell pair information
Shell pair cut-off parameter TPreSel        ...   2.5e-12
Total number of shell pairs                 ...       820
Shell pairs after pre-screening             ...       706
Total number of primitive shell pairs       ...      4386
Primitive shell pairs kept                  ...      2315
          la=0 lb=0:    348 shell pairs
          la=1 lb=0:    195 shell pairs
          la=1 lb=1:     33 shell pairs
          la=2 lb=0:     91 shell pairs
          la=2 lb=1:     30 shell pairs
          la=2 lb=2:      9 shell pairs

Calculating one electron integrals          ... done (  0.0 sec)
Calculating Nuclear repulsion               ... done (  0.0 sec) ENN=    117.096960795215 Eh

Diagonalization of the overlap matrix:
Smallest eigenvalue                        ... 4.298e-02
Time for diagonalization                   ...    0.001 sec
Threshold for overlap eigenvalues          ... 1.000e-07
Number of eigenvalues below threshold      ... 0
Time for construction of square roots      ...    0.003 sec
Total time needed                          ...    0.006 sec

-------------------
DFT GRID GENERATION
-------------------

General Integration Accuracy     IntAcc      ... 4.388
Radial Grid Type                 RadialGrid  ... OptM3 with GC (2021)
Angular Grid (max. ang.)         AngularGrid ... 4 (Lebedev-302)
Angular grid pruning method      GridPruning ... 4 (adaptive)
Weight generation scheme         WeightScheme... mBecke (2022)
Basis function cutoff            BFCut       ... 1.0000e-11
Integration weight cutoff        WCut        ... 1.0000e-14
Partially contracted basis set               ... off
Rotationally invariant grid construction     ... off
Angular grids for H and He will be reduced by one unit

Total number of grid points                  ...    50857
Total number of batches                      ...      801
Average number of points per batch           ...       63
Average number of grid points per atom       ...     4238
Initializing property integral containers    ... done (  0.0 sec)

SHARK setup successfully completed in   0.5 seconds

Maximum memory used throughout the entire STARTUP-calculation: 17.3 MB
-------------------------------------------------------------------------------
                                 ORCA GUESS
                   Start orbitals & Density for SCF / CASSCF
-------------------------------------------------------------------------------

------------
SCF SETTINGS
------------
Hamiltonian:
 Ab initio Hamiltonian  Method          .... Hartree-Fock(GTOs)


General Settings:
 Integral files         IntName         .... frag
 Hartree-Fock type      HFTyp           .... RHF
 Total Charge           Charge          ....    0
 Multiplicity           Mult            ....    1
 Number of Electrons    NEL             ....   40
 Basis Dimension        Dim             ....   72
 Nuclear Repulsion      ENuc            ....    117.0969607952 Eh

Convergence Acceleration:
 AO-DIIS                CNVDIIS         .... on
   Start iteration      DIISMaxIt       ....    12
   Startup error        DIISStart       ....  0.200000
   # of expansion vecs  DIISMaxEq       ....     5
   Bias factor          DIISBfac        ....   1.050
   Max. coefficient     DIISMaxC        ....  10.000
 MO-DIIS                CNVKDIIS        .... off
 Trust-Rad. Augm. Hess. CNVTRAH         .... auto
   Auto Start mean grad. ratio tolernc. ....  1.125000
   Auto Start start iteration           ....    50
   Auto Start num. interpolation iter.  ....    10
   Max. Number of Micro iterations      ....    24
   Max. Number of Macro iterations      .... Maxiter - #DIIS iter
   Number of Davidson start vectors     ....     2
   Converg. threshold    (grad. norm)   ....   1.000e-05
   Grad. Scal. Fac. for Micro threshold ....   0.100
   Minimum threshold for Micro iter.    ....   1.000e-02
   NR start threshold (gradient norm)   ....   1.000e-04
   Initial trust radius                 ....   0.400
   Minimum AH scaling param. (alpha)    ....   1.000
   Maximum AH scaling param. (alpha)    .... 1000.000
   Quad. conv. algorithm                .... NR
   White noise on init. David. guess    .... on
   Maximum white noise                  ....   0.010
   Pseudo random numbers                .... off
   Inactive MOs                         .... canonical
   Orbital update algorithm             .... Taylor
   Preconditioner                       .... Diag
   Full preconditioner red. dimension   ....   250
 SOSCF                  CNVSOSCF        .... on
   Start iteration      SOSCFMaxIt      ....   150
   Startup grad/error   SOSCFStart      ....  0.003300
   Hessian update       SOSCFHessUp     .... L-BFGS
 Level Shifting         CNVShift        .... on
   Level shift para.    LevelShift      ....    0.2500
   Turn off err/grad.   ShiftErr        ....    0.0010
 Zerner damping         CNVZerner       .... off
 Static damping         CNVDamp         .... on
   Fraction old density DampFac         ....    0.7000
   Max. Damping (<1)    DampMax         ....    0.9800
   Min. Damping (>=0)   DampMin         ....    0.0000
   Turn off err/grad.   DampErr         ....    0.1000

SCF Procedure:
 Maximum # iterations   MaxIter         ....   125
 SCF integral mode      SCFMode         .... Direct
   Integral package                     .... SHARK and LIBINT hybrid scheme
 Reset frequency        DirectResetFreq ....    20
 Integral Threshold     Thresh          ....  2.500e-11 Eh
 Primitive CutOff       TCut            ....  2.500e-12 Eh

Convergence Tolerance:
 Convergence Check Mode ConvCheckMode   .... Total+1el-Energy
 Convergence forced     ConvForced      .... 0
 Energy Change          TolE            ....  1.000e-08 Eh
 1-El. energy change                    ....  1.000e-05 Eh
 Orbital Gradient       TolG            ....  1.000e-05
 Orbital Rotation angle TolX            ....  1.000e-05
 DIIS Error             TolErr          ....  5.000e-07

------------------------------
INITIAL GUESS: MODEL POTENTIAL
------------------------------
Loading Hartree-Fock densities                     ... done
Calculating cut-offs                               ... done
Initializing the effective Hamiltonian             ... done
Setting up the integral package (SHARK)            ... done
Starting the Coulomb interaction                   ... done (   0.0 sec)
Making the grid                                    ... done (   0.1 sec)
Mapping shells                                     ... done
Starting the XC term evaluation                    ... done (   0.0 sec)
Transforming the Hamiltonian                       ... done (   0.0 sec)
Diagonalizing the Hamiltonian                      ... done (   0.0 sec)
Back transforming the eigenvectors                 ... done (   0.0 sec)
Now organizing SCF variables                       ... done
                      ------------------
                      INITIAL GUESS DONE (   0.2 sec)
                      ------------------
             **** ENERGY FILE WAS UPDATED (frag.en.tmp) ****
Finished Guess after   0.3 sec
Maximum memory used throughout the entire GUESS-calculation: 7.3 MB

-------------------------------------------------------------------------------------------
                                      ORCA LEAN-SCF
                              memory conserving SCF solver
-------------------------------------------------------------------------------------------

----------------------------------------D-I-I-S--------------------------------------------
Iteration    Energy (Eh)           Delta-E    RMSDP     MaxDP     DIISErr   Damp  Time(sec)
-------------------------------------------------------------------------------------------
               ***  Starting incremental Fock matrix formation  ***
    1    -303.5595984451490494     0.00e+00  6.28e-03  7.27e-02  3.31e-01  0.700   0.2
    2    -303.7226141978475198    -1.63e-01  4.27e-03  4.98e-02  2.01e-01  0.700   0.2
                               ***Turning on AO-DIIS***
    3    -303.8106790341898886    -8.81e-02  1.67e-03  2.15e-02  1.12e-01  0.700   0.2
    4    -303.8638703216744261    -5.32e-02  1.01e-03  1.37e-02  7.60e-02  0.700   0.2
    5    -303.8990334020725186    -3.52e-02  2.34e-03  3.24e-02  5.40e-02  0.000   0.2
    6    -303.9774843471951726    -7.85e-02  1.67e-04  1.73e-03  3.40e-03  0.000   0.1
                              *** Initializing SOSCF ***
---------------------------------------S-O-S-C-F--------------------------------------
Iteration    Energy (Eh)           Delta-E    RMSDP     MaxDP     MaxGrad    Time(sec)
--------------------------------------------------------------------------------------
    7    -303.9775495088360913    -6.52e-05  1.04e-04  8.29e-04  1.15e-03     0.1
               *** Restarting incremental Fock matrix formation ***
    8    -303.9775621349439234    -1.26e-05  4.79e-05  5.33e-04  1.94e-04     0.1
    9    -303.9775634890314677    -1.35e-06  3.01e-05  2.48e-04  9.05e-05     0.1
   10    -303.9775637420293606    -2.53e-07  3.97e-06  4.45e-05  3.50e-05     0.2
   11    -303.9775637559272354    -1.39e-08  9.25e-07  1.02e-05  6.35e-06     0.1
   12    -303.9775637563010378    -3.74e-10  1.95e-07  2.32e-06  1.21e-06     0.1
                 **** Energy Check signals convergence ****

               *****************************************************
               *                     SUCCESS                       *
               *           SCF CONVERGED AFTER  12 CYCLES          *
               *****************************************************

             **** ENERGY FILE WAS UPDATED (frag.en.tmp) ****

----------------
TOTAL SCF ENERGY
----------------

Total Energy       :       -303.97756375630104 Eh           -8271.65003 eV

Components:
Nuclear Repulsion  :        117.09696079521464 Eh            3186.37030 eV
Electronic Energy  :       -421.07452455151565 Eh          -11458.02033 eV
One Electron Energy:       -652.03627952376098 Eh          -17742.80919 eV
Two Electron Energy:        230.96175497224533 Eh            6284.78887 eV

Virial components:
Potential Energy   :       -609.50061260978362 Eh          -16585.35485 eV
Kinetic Energy     :        305.52304885348258 Eh            8313.70482 eV
Virial Ratio       :          1.99494151062258

---------------
SCF CONVERGENCE
---------------

  Last Energy change         ...    3.7380e-10  Tolerance :   1.0000e-08
  Last MAX-Density change    ...    2.3153e-06  Tolerance :   1.0000e-07
  Last RMS-Density change    ...    1.9468e-07  Tolerance :   5.0000e-09
  Last DIIS Error            ...    1.1460e-03  Tolerance :   5.0000e-07
  Last Orbital Gradient      ...    1.2118e-06  Tolerance :   1.0000e-05
  Last Orbital Rotation      ...    1.3455e-06  Tolerance :   1.0000e-05


----------------
ORBITAL ENERGIES
----------------

  NO   OCC          E(Eh)            E(eV) 
   0   2.0000     -20.546324      -559.0939 
   1   2.0000     -20.542815      -558.9984 
   2   2.0000     -20.526924      -558.5660 
   3   2.0000     -20.525671      -558.5319 
   4   2.0000      -1.399571       -38.0842 
   5   2.0000      -1.396480       -38.0001 
   6   2.0000      -1.380820       -37.5740 
   7   2.0000      -1.378905       -37.5219 
   8   2.0000      -0.762408       -20.7462 
   9   2.0000      -0.759125       -20.6569 
  10   2.0000      -0.744960       -20.2714 
  11   2.0000      -0.740644       -20.1540 
  12   2.0000      -0.596718       -16.2375 
  13   2.0000      -0.593274       -16.1438 
  14   2.0000      -0.577207       -15.7066 
  15   2.0000      -0.575623       -15.6635 
  16   2.0000      -0.513191       -13.9646 
  17   2.0000      -0.509905       -13.8752 
  18   2.0000      -0.493356       -13.4249 
  19   2.0000      -0.492463       -13.4006 
  20   0.0000       0.181209         4.9310 
  21   0.0000       0.230391         6.2692 
  22   0.0000       0.239241         6.5101 
  23   0.0000       0.275137         7.4869 
  24   0.0000       0.307511         8.3678 
  25   0.0000       0.321997         8.7620 
  26   0.0000       0.333445         9.0735 
  27   0.0000       0.414388        11.2761 
  28   0.0000       1.043722        28.4011 
  29   0.0000       1.048308        28.5259 
  30   0.0000       1.051272        28.6066 
*Only the first 10 virtual orbitals were printed.

                    ********************************
                    * MULLIKEN POPULATION ANALYSIS *
                    ********************************

-----------------------
MULLIKEN ATOMIC CHARGES
-----------------------
   0 O :   -0.889790
   1 H :    0.445589
   2 H :    0.444952
   3 O :   -0.894382
   4 H :    0.445272
   5 H :    0.447477
   6 O :   -0.883128
   7 H :    0.446085
   8 H :    0.437860
   9 O :   -0.881798
  10 H :    0.439259
  11 H :    0.442604
Sum of atomic charges:   -0.0000000

--------------------------------
MULLIKEN REDUCED ORBITAL CHARGES
--------------------------------
  0 O s       :     3.847565  s :     3.847565
      pz      :     1.911450  p :     5.008709
      px      :     1.418466
      py      :     1.678793
      dz2     :     0.003537  d :     0.033515
      dxz     :     0.006225
      dyz     :     0.005708
      dx2y2   :     0.009867
      dxy     :     0.008179

  1 H s       :     0.554411  s :     0.554411

  2 H s       :     0.555048  s :     0.555048

  3 O s       :     3.846880  s :     3.846880
      pz      :     1.447513  p :     5.014347
      px      :     1.736372
      py      :     1.830462
      dz2     :     0.015185  d :     0.033155
      dxz     :     0.004242
      dyz     :     0.001226
      dx2y2   :     0.002589
      dxy     :     0.009912

  4 H s       :     0.554728  s :     0.554728

  5 H s       :     0.552523  s :     0.552523

  6 O s       :     3.847189  s :     3.847189
      pz      :     1.502720  p :     5.002079
      px      :     1.646424
      py      :     1.852935
      dz2     :     0.006776  d :     0.033860
      dxz     :     0.010956
      dyz     :     0.002663
      dx2y2   :     0.006580
      dxy     :     0.006886

  7 H s       :     0.553915  s :     0.553915

  8 H s       :     0.562140  s :     0.562140

  9 O s       :     3.848298  s :     3.848298
      pz      :     1.714649  p :     4.999582
      px      :     1.708354
      py      :     1.576579
      dz2     :     0.004647  d :     0.033918
      dxz     :     0.009680
      dyz     :     0.002827
      dx2y2   :     0.001829
      dxy     :     0.014936

 10 H s       :     0.560741  s :     0.560741

 11 H s       :     0.557396  s :     0.557396



                     *******************************
                     * LOEWDIN POPULATION ANALYSIS *
                     *******************************

----------------------
LOEWDIN ATOMIC CHARGES
----------------------
   0 O :   -0.625388
   1 H :    0.311925
   2 H :    0.313973
   3 O :   -0.626676
   4 H :    0.310262
   5 H :    0.315260
   6 O :   -0.623424
   7 H :    0.314596
   8 H :    0.309435
   9 O :   -0.622121
  10 H :    0.310691
  11 H :    0.311465

-------------------------------
LOEWDIN REDUCED ORBITAL CHARGES
-------------------------------
  0 O s       :     3.555385  s :     3.555385
      pz      :     1.916141  p :     5.027725
      px      :     1.423036
      py      :     1.688548
      dz2     :     0.004193  d :     0.042278
      dxz     :     0.007885
      dyz     :     0.006136
      dx2y2   :     0.013090
      dxy     :     0.010974

  1 H s       :     0.688075  s :     0.688075

  2 H s       :     0.686027  s :     0.686027

  3 O s       :     3.553453  s :     3.553453
      pz      :     1.453775  p :     5.031401
      px      :     1.743963
      py      :     1.833662
      dz2     :     0.020148  d :     0.041821
      dxz     :     0.005393
      dyz     :     0.001679
      dx2y2   :     0.002682
      dxy     :     0.011920

  4 H s       :     0.689738  s :     0.689738

  5 H s       :     0.684740  s :     0.684740

  6 O s       :     3.556701  s :     3.556701
      pz      :     1.509679  p :     5.023950
      px      :     1.660251
      py      :     1.854020
      dz2     :     0.009191  d :     0.042774
      dxz     :     0.014054
      dyz     :     0.003809
      dx2y2   :     0.007279
      dxy     :     0.008441

  7 H s       :     0.685404  s :     0.685404

  8 H s       :     0.690565  s :     0.690565

  9 O s       :     3.556744  s :     3.556744
      pz      :     1.719111  p :     5.022474
      px      :     1.723277
      py      :     1.580086
      dz2     :     0.005680  d :     0.042902
      dxz     :     0.011759
      dyz     :     0.004410
      dx2y2   :     0.001898
      dxy     :     0.019156

 10 H s       :     0.689309  s :     0.689309

 11 H s       :     0.688535  s :     0.688535



                      *****************************
                      * MAYER POPULATION ANALYSIS *
                      *****************************

  NA   - Mulliken gross atomic population
  ZA   - Total nuclear charge
  QA   - Mulliken gross atomic charge
  VA   - Mayer's total valence
  BVA  - Mayer's bonded valence
  FA   - Mayer's free valence

  ATOM       NA         ZA         QA         VA         BVA        FA
  0 O      8.8898     8.0000    -0.8898     1.5532     1.5532    -0.0000
  1 H      0.5544     1.0000     0.4456     0.7669     0.7669    -0.0000
  2 H      0.5550     1.0000     0.4450     0.7669     0.7669     0.0000
  3 O      8.8944     8.0000    -0.8944     1.5482     1.5482    -0.0000
  4 H      0.5547     1.0000     0.4453     0.7684     0.7684     0.0000
  5 H      0.5525     1.0000     0.4475     0.7662     0.7662    -0.0000
  6 O      8.8831     8.0000    -0.8831     1.5586     1.5586     0.0000
  7 H      0.5539     1.0000     0.4461     0.7657     0.7657    -0.0000
  8 H      0.5621     1.0000     0.4379     0.7710     0.7710    -0.0000
  9 O      8.8818     8.0000    -0.8818     1.5580     1.5580    -0.0000
 10 H      0.5607     1.0000     0.4393     0.7705     0.7705    -0.0000
 11 H      0.5574     1.0000     0.4426     0.7678     0.7678    -0.0000

  Mayer bond orders larger than 0.100000
B(  0-O ,  1-H ) :   0.7722 B(  0-O ,  2-H ) :   0.7762 B(  3-O ,  4-H ) :   0.7708 
B(  3-O ,  5-H ) :   0.7744 B(  6-O ,  7-H ) :   0.7751 B(  6-O ,  8-H ) :   0.7803 
B(  9-O , 10-H ) :   0.7798 B(  9-O , 11-H ) :   0.7756 

-------
TIMINGS
-------

Total SCF time: 0 days 0 hours 0 min 1 sec 

Total time                  ....       1.832 sec
Sum of individual times     ....       1.736 sec  ( 94.8%)

SCF preparation             ....       0.074 sec  (  4.0%)
Fock matrix formation       ....       1.367 sec  ( 74.6%)
  Startup                   ....       0.025 sec  (  1.8% of F)
  Coulomb+Exchange Fock     ....       1.230 sec  ( 89.9% of F)
Diagonalization             ....       0.000 sec  (  0.0%)
Density matrix formation    ....       0.088 sec  (  4.8%)
Total Energy calculation    ....       0.028 sec  (  1.5%)
Population analysis         ....       0.010 sec  (  0.5%)
Orbital Transformation      ....       0.010 sec  (  0.5%)
Orbital Orthonormalization  ....       0.000 sec  (  0.0%)
DIIS solution               ....       0.102 sec  (  5.6%)
SOSCF solution              ....       0.058 sec  (  3.2%)
Finished LeanSCF after   1.8 sec

Maximum memory used throughout the entire LEANSCF-calculation: 8.2 MB

-------------------------   --------------------
FINAL SINGLE POINT ENERGY      -303.977563756301
-------------------------   --------------------

------------------------------------------------------------------------------
                         ORCA SCF GRADIENT CALCULATION
------------------------------------------------------------------------------

Nuc. rep. gradient        (SHARK) ... done (  0.0 sec)
HCore & Overlap gradient  (SHARK) ... done (  0.0 sec)
Two-electron gradient     (SHARK) ... done (  0.4 sec)

------------------
CARTESIAN GRADIENT
------------------

   1   O   :   -0.043295013   -0.097862998    0.064167567
   2   H   :   -0.064056250    0.088521619   -0.029635535
   3   H   :    0.107393277    0.010693203   -0.034244638
   4   O   :   -0.091249557    0.055678825    0.067244677
   5   H   :    0.010674940    0.010239983   -0.111478858
   6   H   :    0.081227323   -0.065820833    0.043803274
   7   O   :   -0.114821446   -0.007435538    0.045499852
   8   H   :    0.087502082    0.046405986    0.055197814
   9   H   :    0.028133971   -0.041164567   -0.101344204
  10   O   :    0.113244181    0.019779087    0.043245925
  11   H   :   -0.048199442    0.064733879   -0.078903830
  12   H   :   -0.066554068   -0.083768647    0.036447957

Difference to translation invariance:
           :   -0.0000000000   -0.0000000001   -0.0000000001

Difference to rotation invariance:
           :   -0.0000002774   -0.0000001515   -0.0000000134

Norm of the Cartesian gradient     ...    0.4051840680
RMS gradient                       ...    0.0675306780
MAX gradient                       ...    0.1148214457

-------
TIMINGS
-------

Total SCF gradient time     ....        0.469 sec

Densities                   ....       0.000 sec  (  0.0%)
One electron gradient       ....       0.036 sec  (  7.7%)
Two electron gradient       ....       0.433 sec  ( 92.3%)

Maximum memory used throughout the entire SCFGRAD-calculation: 14.0 MB

------------------------------------------------------------------------------
                              ORCA PROPERTY CALCULATIONS
------------------------------------------------------------------------------

GBWName                                 ... frag.gbw
Number of atoms                         ...     12
Number of basis functions               ...     72
Max core memory                         ...   1024 MB

Electric properties:
Dipole moment                           ... YES
Quadrupole moment                       ...  NO
Static polarizability (Dipole/Dipole)   ...  NO
Static polarizability (Dipole/Quad.)    ...  NO
Static polarizability (Quad./Quad.)     ...  NO
Static polarizability (Velocity)        ...  NO

Atomic electric properties:
Dipole moment                           ...  NO
Quadrupole moment                       ...  NO
Static polarizability                   ...  NO

Choice of electric origin               ... Center of mass
Position of electric origin             ...    39.417210    88.225011    74.623252

General magnetic properties:
Magnetizability                         ...  NO

EPR properties:
g-Tensor (aka g-matrix)                 ...  NO
Zero-Field splitting spin-orbit         ...  NO
Zero-field splitting spin-spin          ...  NO
Hyperfine couplings                     ...  NO (   0 nuclei)
Quadrupole couplings                    ...  NO (   0 nuclei)
Contact density                         ...  NO (   0 nuclei)

NMR properties:
Chemical shifts                         ...  NO (   0 nuclei)
Spin-rotation constants                 ...  NO (   0 nuclei)
Spin-spin couplings                     ...  NO (   0 nuclei,    0 pairs)

Choice of magnetic origin               ... GIAO
Position of magnetic origin             ...     0.000000     0.000000     0.000000

Properties with geometric perturbations:
SCF Hessian                             ...  NO
IR spectrum                             ...  NO
VCD spectrum                            ...  NO
X-ray spectroscopy properties:
SCF XES/XAS/RIXS spectra                ...  NO


-------------
DIPOLE MOMENT
-------------

Method             : SCF
Type of density    : Electron Density
Multiplicity       :   1
Irrep              :   0
Energy             :  -303.9775637563010378 Eh
Relativity type    : 
Basis              : AO
                                X                 Y                 Z
Electronic contribution:      0.028552150      -0.005195519      -0.104255024
Nuclear contribution   :     -0.953593964      -0.183111016       1.592264280
                        -----------------------------------------
Total Dipole Moment    :     -0.925041813      -0.188306536       1.488009256
                        -----------------------------------------
Magnitude (a.u.)       :      1.762195578
Magnitude (Debye)      :      4.479145195



--------------------
Rotational spectrum 
--------------------
 
Rotational constants in cm-1:             0.082157             0.050393             0.036316 
Rotational constants in MHz :          2463.014177          1510.749798          1088.727674 

Dipole components along the rotational axes: 
x,y,z [a.u.] :     0.107880    -1.702023     0.443637 
x,y,z [Debye]:     0.274208    -4.326198     1.127636 

 

Dipole moment calculation done in   0.0 sec 

Maximum memory used throughout the entire PROP-calculation: 2.7 MB

--------------------------------
SUGGESTED CITATIONS FOR THIS RUN
--------------------------------

Below you find a list of papers that are relevant to this ORCA run
We neither can nor want to force you to cite these papers, but we appreciate if you do
You receive ORCA, which is the product of decades of hard work by many enthusiastic individuals, for free
The only thing we kindly ask in return is that you cite our papers,
We deeply appreciate it, if you show your appreciation for ORCA by not just citing the generic ORCA reference.

Please note that relegating all ORCA citations to the supporting information does *not* help us.
SI sections are not indexed - citations you put there will not count into any citation statistics
But we need these citations in order to attract the funding resources that allow us to do what we are doing

Therefore, if you are a happy ORCA user, please consider citing a few of the papers listed below in the main body of your paper

In addition to the list printed below, the program has created the file frag.bibtex that contains the list in bibtex format
You can import this file easily into all common literature databanks and citation aid programs


List of essential papers. We consider these as the minimum necessary citations

  1. Neese,F.
     Software update: the ORCA program system, version 5.0
     WIRES Comput. Molec. Sci., 2022 12(1)e1606
     doi.org/10.1002/wcms.1606

List of papers to cite with high priority. The work reported in these papers was absolutely
necessary for this run to complete.
Our perspective: the developers of density functionals and basis sets usually get cited in chemistry papers
Good! But without the algorithms to do something with them, the functionals or basis sets would not do anything.
Hence, in our opinion, the algorithm design and method developments papers are equally worthy of getting cited

  1. Neese,F.
     The SHARK Integral Generation and Digestion System
     J. Comp. Chem., 2022  1-16
     doi.org/10.1002/jcc.26942

List of suggested additional citations. These are papers that are important in the 'surrounding' of 
of this run, or papers that preceded the highly important papers. If you like your results we are grateful for a citation.

  1. Neese,F.
     The ORCA program system
     WIRES Comput. Molec. Sci., 2012 2(1)73-78
     doi.org/10.1002/wcms.81
  2. Neese,F.
     Software update: the ORCA program system, version 4.0
     WIRES Comput. Molec. Sci., 2018 8(1)1-6
     doi.org/10.1002/wcms.1327
  3. Neese,F.; Wennmohs,F.; Becker,U.; Riplinger,C.
     The ORCA quantum chemistry program package
     J. Chem. Phys., 2020 152 Art. No. L224108
     doi.org/10.1063/5.0004608

List of optional additional citations

  1. Neese,F.
     Approximate second-order SCF convergence for spin unrestricted wavefunctions
     Chem. Phys. Lett., 2000 325(1-3)93-98
     doi.org/10.1016/s0009-2614(00)00662-x

Timings for individual modules:

Sum of individual times          ...        3.244 sec (=   0.054 min)
Startup calculation              ...        0.495 sec (=   0.008 min)  15.3 %
SCF iterations                   ...        2.139 sec (=   0.036 min)  65.9 %
Property calculations            ...        0.060 sec (=   0.001 min)   1.9 %
SCF Gradient evaluation          ...        0.550 sec (=   0.009 min)  17.0 %
                             ****ORCA TERMINATED NORMALLY****
TOTAL RUN TIME: 0 days 0 hours 0 minutes 3 seconds 443 msec
