
                                 *****************
                                 * O   R   C   A *
                                 *****************

                                            #,                                       
                                            ###                                      
                                            ####                                     
                                            #####                                    
                                            ######                                   
                                           ########,                                 
                                     ,,################,,,,,                         
                               ,,#################################,,                 
                          ,,##########################################,,             
                       ,#########################################, ''#####,          
                    ,#############################################,,   '####,        
                  ,##################################################,,,,####,       
                ,###########''''           ''''###############################       
              ,#####''   ,,,,##########,,,,          '''####'''          '####       
            ,##' ,,,,###########################,,,                        '##       
           ' ,,###''''                  '''############,,,                           
         ,,##''                                '''############,,,,        ,,,,,,###''
      ,#''                                            '''#######################'''  
     '                                                          ''''####''''         
             ,#######,   #######,   ,#######,      ##                                
            ,#'     '#,  ##    ##  ,#'     '#,    #''#        ,####,   ,####,        
            ##       ##  ##   ,#'  ##            #'  '#       #'       #'  '#        
            ##       ##  #######   ##           ,######,      #####,   #    #        
            '#,     ,#'  ##    ##  '#,     ,#' ,#      #,     #,   #   #,  ,#        
             '#######'   ##     ##  '#######'  #'      '#     '####' # '####'        



                #########################################################
                #                        -***-                          #
                #          Department of theory and spectroscopy        #
                #                                                       #
                #                      Frank Neese                      #
                #                                                       #
                #     Directorship, Architecture, Infrastructure        #
                #                    SHARK, DRIVERS                     #
                #        Core code/Algorithms in most modules           #
                #                                                       #
                #        Max Planck Institute fuer Kohlenforschung      #
                #                Kaiser Wilhelm Platz 1                 #
                #                 D-45470 Muelheim/Ruhr                 #
                #                      Germany                          #
                #                                                       #
                #                  All rights reserved                  #
                #                        -***-                          #
                #########################################################


                         Program Version 6.0.1  -  RELEASE   -


 With contributions from (in alphabetic order):
[Max-Planck-Institut fuer Kohlenforschung]                               
  Daniel Aravena         : Magnetic Suceptibility                        
  Michael Atanasov       : Ab Initio Ligand Field Theory (pilot matlab implementation)
  Alexander A. Auer      : GIAO ZORA, VPT2 properties, NMR spectrum      
  Ute Becker             : All parallelization in ORCA, NUMFREQ, NUMCALC 
  Giovanni Bistoni       : ED, misc. LED, open-shell LED, HFLD           
  Martin Brehm           : Molecular dynamics                            
  Dmytro Bykov           : pre 5.0 version of the SCF Hessian            
  Marcos Casanova-Páez   : Triplet and SCS-CIS(D). UHF-(DLPNO)-IP/EA/STEOM-CCSD. UHF-CVS-IP/STEOM-CCSD   
  Vijay G. Chilkuri      : MRCI spin determinant printing, contributions to CSF-ICE 
  Pauline Colinet        : FMM embedding                                 
  Dipayan Datta          : RHF DLPNO-CCSD density                        
  Achintya Kumar Dutta   : EOM-CC, STEOM-CC                              
  Nicolas Foglia         : Exact transition moments, OPA infrastructure, MCD improvements    
  Dmitry Ganyushin       : Spin-Orbit,Spin-Spin,Magnetic field MRCI      
  Miquel Garcia-Rates    : C-PCM and meta-GGA Hessian, CCSD/C-PCM, Gaussian charge scheme 
  Tiago L. C. Gouveia    : GS-ROHF, GS-ROCIS                             
  Yang Guo               : DLPNO-NEVPT2, F12-NEVPT2, CIM, IAO-localization        
  Andreas Hansen         : Spin unrestricted coupled pair/coupled cluster methods 
  Ingolf Harden          : AUTO-CI MPn and infrastructure                
  Benjamin Helmich-Paris : MC-RPA, TRAH-(SCF,CASSCF), AVAS, COSX integrals, SCF dyn. polar. 
  Lee Huntington         : MR-EOM, pCC                                   
  Robert Izsak           : Overlap fitted RIJCOSX, COSX-SCS-MP3, EOM     
  Riya Kayal             : Wick's Theorem for AUTO-CI, AUTO-CI UHF-CCSDT 
  Emily Kempfer          : AUTO-CI, RHF CISDT and CCSDT                  
  Christian Kollmar      : KDIIS, OOCD, Brueckner-CCSD(T), CCSD density, CASPT2, CASPT2-K, improved NEVPT2 
  Axel Koslowski         : Symmetry handling                             
  Simone Kossmann        : meta-GGA functionals, TD-DFT gradient, OOMP2, (MP2 Hessian; deprecated post 5.0) 
  Lucas Lang             : DCDCAS                                        
  Marvin Lechner         : AUTO-CI (C++ implementation), FIC-MRCC        
  Spencer Leger          : CASSCF response                               
  Dagmar Lenk            : GEPOL surface, SMD, ORCA-2-JSON               
  Dimitrios Liakos       : Extrapolation schemes; Compound Job, initial MDCI parallelization 
  Dimitrios Manganas     : Further ROCIS development; embedding schemes. LFT, Crystal Embedding 
  Dimitrios Pantazis     : SARC Basis sets                               
  Anastasios Papadopoulos: AUTO-CI, single reference methods and gradients 
  Taras Petrenko         : pre 6.0 DFT Hessian and TD-DFT gradient, (ASA, deprecated), ECA, 1-Electron XAS/XES, NRVS 
  Peter Pinski           : DLPNO-MP2, DLPNO-MP2 Gradient                 
  Christoph Reimann      : Effective Core Potentials                     
  Marius Retegan         : Local ZFS, SOC                                
  Christoph Riplinger    : Optimizer, TS searches, QM/MM, DLPNO-CCSD(T), (RO)-DLPNO pert. Triples 
  Michael Roemelt        : Original ROCIS implementation                 
  Masaaki Saitow         : Open-shell DLPNO-CCSD energy and density      
  Barbara Sandhoefer     : DKH picture change effects                    
  Kantharuban Sivalingam : CASSCF convergence/infrastructure, NEVPT2 and variants, FIC-MRCI 
  Bernardo de Souza      : ESD, SOC TD-DFT                               
  Georgi L. Stoychev     : AutoAux, RI-MP2 NMR, DLPNO-MP2 response, X2C  
  Van Anh Tran           : RI-MP2 g-tensors                              
  Willem Van den Heuvel  : Paramagnetic NMR                              
  Zikuan Wang            : NOTCH, Electric field optimization            
  Frank Wennmohs         : Technical directorship and infrastructure     
  Hang Xu                : AUTO-CI-Response properties                   
                                                                         
[FACCTs GmbH]                                                            
  Markus Bursch, Miquel Garcia-Rates, Christoph Riplinger, Bernardo de Souza, Georgi L. Stoychev 
                                                                 
  APM, Basis sets (HGBS, AHGBS, def-TZVP (Ac-Lr), def2-XVPD (La-Lu)), CI-OPT, improved COSX, DLPNO-Multilevel,           
  DOCKER, DRACO, updates on ESD, GOAT, IRC, LR-CPCM, MBIS, meta-GGA TD-DFT gradient, ML-optimized integration grids, 
  MM, NACMEs, nearIR, NEB, NEB-TS, NL-DFT gradient (VV10), 2- and 3-layer-ONIOM, interface openCOSMO-RS, QMMM,   
  Crystal-QMMM, SF, symmetry and pop. for TD-DFT, r2SCAN hybrids, SOLVATOR                                   
                                                                         
[Other institutions]                                                     
  V. Asgeirsson          : NEB                                           
  Christoph Bannwarth    : sTDA-DFT, sTD-DFT, PBEh-3c, B97-3c, D3        
  Sebastian Ehlert       : rSCAN, r2SCAN, r2SCAN-3c, D4, dhf basis sets  
  Marvin Friede          : D4 for Fr, Ra, Ac-Lr                          
  Lars Goerigk           : TD-DFT with DH, B97 family of functionals     
  Stefan Grimme          : VdW corrections, initial TS optimization, DFT functionals, gCP, sTDA/sTD-DF 
  Waldemar Hujo          : DFT-NL                                        
  H. Jonsson             : NEB                                           
  Holger Kruse           : gCP                                           
  Marcel Mueller         : wB97X-3c, vDZP basis set                      
  Hagen Neugebauer       : wr2SCAN                                       
  Tobias Risthaus        : range-separated hybrid DFT                    
  Lukas Wittmann         : regularized MP2, r2SCAN double-hybrids, wr2SCAN        
                                                                         
We gratefully acknowledge several colleagues who have allowed us to      
interface, adapt or use parts of their codes:                            
  Ed Valeev, F. Pavosevic, A. Kumar             : LibInt (2-el integral package), F12 methods 
  Garnet Chan, S. Sharma, J. Yang, R. Olivares  : DMRG                   
  Ulf Ekstrom                                   : XCFun DFT Library      
  Mihaly Kallay                                 : mrcc  (arbitrary order and MRCC methods)
  Frank Weinhold                                : gennbo (NPA and NBO analysis)           
  Simon Mueller                                 : openCOSMO-RS                            
  Christopher J. Cramer and Donald G. Truhlar   : smd solvation model                     
  S Lehtola, MJT Oliveira, MAL Marques          : LibXC Library                           
  Liviu Ungur et al                             : ANISO software                          


 Your calculation uses the libint2 library for the computation of 2-el integrals
 For citations please refer to: http://libint.valeyev.net

 Your ORCA version has been built with support for libXC version: 6.2.2
 For citations please refer to: https://libxc.gitlab.io

 This ORCA versions uses:
   CBLAS   interface :  Fast vector & matrix operations
   LAPACKE interface :  Fast linear algebra routines
   SCALAPACK package :  Parallel linear algebra routines
   Shared memory     :  Shared parallel matrices
   BLAS/LAPACK       :  OpenBLAS 0.3.27  USE64BITINT DYNAMIC_ARCH NO_AFFINITY SkylakeX SINGLE_THREADED
        Core in use  :  SkylakeX
   Copyright (c) 2011-2014, The OpenBLAS Project


================================================================================

----- Orbital basis set information -----
Your calculation utilizes the basis: 6-31G*
   H-He, Li-Ne : W. J. Hehre, R. Ditchfield and J.A. Pople, J. Chem. Phys. 56, 2257 (1972).
                 Note: He and Ne are unpublished basis sets taken from the Gaussian program.
                 Note: Li and B from J. D. Dill and J. A. Pople, J. Chem. Phys. 62, 2921 (1975).
   Na - Ar     : M. M. Francl, W. J. Pietro, W. J. Hehre, J. S. Binkley, M. S. Gordon, 
                 D. J. DeFrees and J. A. Pople, J. Chem. Phys. 77, 3654 (1982).
   K - Zn      : V. A. Rassolov, J. A. Pople, M. A. Ratner, and T. L. Windus, J. Chem. Phys. 109, 1223 (1998).

================================================================================
                                        WARNINGS
                       Please study these warnings very carefully!
================================================================================


================================================================================
                                       INPUT FILE
================================================================================
NAME = frag.inp
|  1> !HF 6-31G* EnGrad
|  2> %pal nprocs 1 end
|  3> *xyz 0 1
|  4> O 24.10596000 46.93173000 41.50917000
|  5> H 24.52341000 46.31399000 41.96223000
|  6> H 24.52212000 47.66562000 41.73132000
|  7> O 21.78987000 47.25010000 37.48256000
|  8> H 21.67133000 47.22017000 38.34638000
|  9> H 21.14108000 47.76263000 37.20411000
| 10> O 19.10373000 45.58535000 40.48424000
| 11> H 18.38270000 45.25544000 40.12036000
| 12> H 18.82331000 45.89664000 41.24949000
| 13> O 21.99613000 48.36911000 43.54199000
| 14> H 21.97702000 49.24128000 43.53308000
| 15> H 21.46413000 48.14557000 42.88766000
| 16> *
| 17> 
| 18>                          ****END OF INPUT****
================================================================================

                     *******************************
                     * Energy+Gradient Calculation *
                     *******************************

---------------------------------
CARTESIAN COORDINATES (ANGSTROEM)
---------------------------------
  O     24.105960   46.931730   41.509170
  H     24.523410   46.313990   41.962230
  H     24.522120   47.665620   41.731320
  O     21.789870   47.250100   37.482560
  H     21.671330   47.220170   38.346380
  H     21.141080   47.762630   37.204110
  O     19.103730   45.585350   40.484240
  H     18.382700   45.255440   40.120360
  H     18.823310   45.896640   41.249490
  O     21.996130   48.369110   43.541990
  H     21.977020   49.241280   43.533080
  H     21.464130   48.145570   42.887660

----------------------------
CARTESIAN COORDINATES (A.U.)
----------------------------
  NO LB      ZA    FRAG     MASS         X           Y           Z
   0 O     8.0000    0    15.999   45.553663   88.688117   78.440963
   1 H     1.0000    0     1.008   46.342529   87.520757   79.297123
   2 H     1.0000    0     1.008   46.340091   90.074968   78.860766
   3 O     8.0000    0    15.999   41.176887   89.289749   70.831773
   4 H     1.0000    0     1.008   40.952879   89.233189   72.464156
   5 H     1.0000    0     1.008   39.950851   90.258290   70.305579
   6 O     8.0000    0    15.999   36.100818   86.143827   76.504126
   7 H     1.0000    0     1.008   34.738269   85.520388   75.816493
   8 H     1.0000    0     1.008   35.570901   86.732080   77.950239
   9 O     8.0000    0    15.999   41.566662   91.404371   82.282436
  10 H     1.0000    0     1.008   41.530549   93.052534   82.265599
  11 H     1.0000    0     1.008   40.561327   90.981942   81.045932

--------------------------------
INTERNAL COORDINATES (ANGSTROEM)
--------------------------------
 O      0   0   0     0.000000000000     0.00000000     0.00000000
 H      1   0   0     0.872427976225     0.00000000     0.00000000
 H      1   2   0     0.872430111929   103.60043743     0.00000000
 O      1   2   3     4.656094977242   137.35234498   150.46640271
 H      4   1   2     0.872429096775    37.71829684   105.15642469
 H      4   1   2     0.872439033687   133.32203144   151.43797541
 O      5   4   1     3.719630569290   132.68352841   218.37957426
 H      7   5   4     0.872429666735   119.79994743   348.29022196
 H      7   5   4     0.872435901944   124.69375762   211.73664810
 O      3   1   2     3.186541935877    87.26422674   254.97016683
 H     10   3   1     0.872424832923   103.43046951   210.28054201
 H     10   3   1     0.872434456277    90.03694945   314.27919388

---------------------------
INTERNAL COORDINATES (A.U.)
---------------------------
 O      0   0   0     0.000000000000     0.00000000     0.00000000
 H      1   0   0     1.648649946636     0.00000000     0.00000000
 H      1   2   0     1.648653982532   103.60043743     0.00000000
 O      1   2   3     8.798744360514   137.35234498   150.46640271
 H      4   1   2     1.648652064169    37.71829684   105.15642469
 H      4   1   2     1.648670842211   133.32203144   151.43797541
 O      5   4   1     7.029083095321   132.68352841   218.37957426
 H      7   5   4     1.648653141238   119.79994743   348.29022196
 H      7   5   4     1.648664924074   124.69375762   211.73664810
 O      3   1   2     6.021691573062    87.26422674   254.97016683
 H     10   3   1     1.648644006656   103.43046951   210.28054201
 H     10   3   1     1.648662192161    90.03694945   314.27919388

---------------------
BASIS SET INFORMATION
---------------------
There are 2 groups of distinct atoms

 Group   1 Type O   : 10s4p1d contracted to 3s2p1d pattern {631/31/1}
 Group   2 Type H   : 4s contracted to 2s pattern {31}

Atom   0O    basis set group =>   1
Atom   1H    basis set group =>   2
Atom   2H    basis set group =>   2
Atom   3O    basis set group =>   1
Atom   4H    basis set group =>   2
Atom   5H    basis set group =>   2
Atom   6O    basis set group =>   1
Atom   7H    basis set group =>   2
Atom   8H    basis set group =>   2
Atom   9O    basis set group =>   1
Atom  10H    basis set group =>   2
Atom  11H    basis set group =>   2
------------------------------------------------------------------------------
                             ORCA STARTUP CALCULATIONS
------------------------------------------------------------------------------
------------------------------------------------------------------------------
                   ___                                                        
                  /   \      - P O W E R E D   B Y -                         
                 /     \                                                     
                 |  |  |   _    _      __       _____    __    __             
                 |  |  |  | |  | |    /  \     |  _  \  |  |  /  |          
                  \  \/   | |  | |   /    \    | | | |  |  | /  /          
                 / \  \   | |__| |  /  /\  \   | |_| |  |  |/  /          
                |  |  |   |  __  | /  /__\  \  |    /   |      \           
                |  |  |   | |  | | |   __   |  |    \   |  |\   \          
                \     /   | |  | | |  |  |  |  | |\  \  |  | \   \       
                 \___/    |_|  |_| |__|  |__|  |_| \__\ |__|  \__/        
                                                                              
                      - O R C A' S   B I G   F R I E N D -                    
                                      &                                       
                       - I N T E G R A L  F E E D E R -                       
                                                                              
 v1 FN, 2020, v2 2021, v3 2022-2024                                           
------------------------------------------------------------------------------


----------------------
SHARK INTEGRAL PACKAGE
----------------------

Number of atoms                             ...     12
Number of basis functions                   ...     72
Number of shells                            ...     40
Maximum angular momentum                    ...      2
Integral batch strategy                     ... SHARK/LIBINT Hybrid
RI-J (if used) integral strategy            ... SPLIT-RIJ (Revised 2003 algorithm where possible)
Printlevel                                  ...      1
Contraction scheme used                     ... SEGMENTED contraction
Prescreening option                         ... SCHWARTZ
   Thresh                                   ... 2.500e-11
   Tcut                                     ... 2.500e-12
   Tpresel                                  ... 2.500e-12 
Coulomb Range Separation                    ... NOT USED
Exchange Range Separation                   ... NOT USED
Multipole approximations                    ... NOT USED
Finite Nucleus Model                        ... NOT USED
CABS basis                                  ... NOT available
Auxiliary Coulomb fitting basis             ... NOT available
Auxiliary J/K fitting basis                 ... NOT available
Auxiliary Correlation fitting basis         ... NOT available
Auxiliary 'external' fitting basis          ... NOT available

Checking pre-screening integrals            ... done (  0.0 sec) Dimension = 40
Check shell pair data                       ... done (  0.0 sec)
Shell pair information
Shell pair cut-off parameter TPreSel        ...   2.5e-12
Total number of shell pairs                 ...       820
Shell pairs after pre-screening             ...       643
Total number of primitive shell pairs       ...      4386
Primitive shell pairs kept                  ...      2185
          la=0 lb=0:    323 shell pairs
          la=1 lb=0:    180 shell pairs
          la=1 lb=1:     31 shell pairs
          la=2 lb=0:     78 shell pairs
          la=2 lb=1:     24 shell pairs
          la=2 lb=2:      7 shell pairs

Calculating one electron integrals          ... done (  0.0 sec)
Calculating Nuclear repulsion               ... done (  0.0 sec) ENN=    108.507268070458 Eh

Diagonalization of the overlap matrix:
Smallest eigenvalue                        ... 4.853e-02
Time for diagonalization                   ...    0.001 sec
Threshold for overlap eigenvalues          ... 1.000e-07
Number of eigenvalues below threshold      ... 0
Time for construction of square roots      ...    0.002 sec
Total time needed                          ...    0.007 sec

-------------------
DFT GRID GENERATION
-------------------

General Integration Accuracy     IntAcc      ... 4.388
Radial Grid Type                 RadialGrid  ... OptM3 with GC (2021)
Angular Grid (max. ang.)         AngularGrid ... 4 (Lebedev-302)
Angular grid pruning method      GridPruning ... 4 (adaptive)
Weight generation scheme         WeightScheme... mBecke (2022)
Basis function cutoff            BFCut       ... 1.0000e-11
Integration weight cutoff        WCut        ... 1.0000e-14
Partially contracted basis set               ... off
Rotationally invariant grid construction     ... off
Angular grids for H and He will be reduced by one unit

Total number of grid points                  ...    50893
Total number of batches                      ...      801
Average number of points per batch           ...       63
Average number of grid points per atom       ...     4241
Initializing property integral containers    ... done (  0.0 sec)

SHARK setup successfully completed in   0.5 seconds

Maximum memory used throughout the entire STARTUP-calculation: 17.2 MB
-------------------------------------------------------------------------------
                                 ORCA GUESS
                   Start orbitals & Density for SCF / CASSCF
-------------------------------------------------------------------------------

------------
SCF SETTINGS
------------
Hamiltonian:
 Ab initio Hamiltonian  Method          .... Hartree-Fock(GTOs)


General Settings:
 Integral files         IntName         .... frag
 Hartree-Fock type      HFTyp           .... RHF
 Total Charge           Charge          ....    0
 Multiplicity           Mult            ....    1
 Number of Electrons    NEL             ....   40
 Basis Dimension        Dim             ....   72
 Nuclear Repulsion      ENuc            ....    108.5072680705 Eh

Convergence Acceleration:
 AO-DIIS                CNVDIIS         .... on
   Start iteration      DIISMaxIt       ....    12
   Startup error        DIISStart       ....  0.200000
   # of expansion vecs  DIISMaxEq       ....     5
   Bias factor          DIISBfac        ....   1.050
   Max. coefficient     DIISMaxC        ....  10.000
 MO-DIIS                CNVKDIIS        .... off
 Trust-Rad. Augm. Hess. CNVTRAH         .... auto
   Auto Start mean grad. ratio tolernc. ....  1.125000
   Auto Start start iteration           ....    50
   Auto Start num. interpolation iter.  ....    10
   Max. Number of Micro iterations      ....    24
   Max. Number of Macro iterations      .... Maxiter - #DIIS iter
   Number of Davidson start vectors     ....     2
   Converg. threshold    (grad. norm)   ....   1.000e-05
   Grad. Scal. Fac. for Micro threshold ....   0.100
   Minimum threshold for Micro iter.    ....   1.000e-02
   NR start threshold (gradient norm)   ....   1.000e-04
   Initial trust radius                 ....   0.400
   Minimum AH scaling param. (alpha)    ....   1.000
   Maximum AH scaling param. (alpha)    .... 1000.000
   Quad. conv. algorithm                .... NR
   White noise on init. David. guess    .... on
   Maximum white noise                  ....   0.010
   Pseudo random numbers                .... off
   Inactive MOs                         .... canonical
   Orbital update algorithm             .... Taylor
   Preconditioner                       .... Diag
   Full preconditioner red. dimension   ....   250
 SOSCF                  CNVSOSCF        .... on
   Start iteration      SOSCFMaxIt      ....   150
   Startup grad/error   SOSCFStart      ....  0.003300
   Hessian update       SOSCFHessUp     .... L-BFGS
 Level Shifting         CNVShift        .... on
   Level shift para.    LevelShift      ....    0.2500
   Turn off err/grad.   ShiftErr        ....    0.0010
 Zerner damping         CNVZerner       .... off
 Static damping         CNVDamp         .... on
   Fraction old density DampFac         ....    0.7000
   Max. Damping (<1)    DampMax         ....    0.9800
   Min. Damping (>=0)   DampMin         ....    0.0000
   Turn off err/grad.   DampErr         ....    0.1000

SCF Procedure:
 Maximum # iterations   MaxIter         ....   125
 SCF integral mode      SCFMode         .... Direct
   Integral package                     .... SHARK and LIBINT hybrid scheme
 Reset frequency        DirectResetFreq ....    20
 Integral Threshold     Thresh          ....  2.500e-11 Eh
 Primitive CutOff       TCut            ....  2.500e-12 Eh

Convergence Tolerance:
 Convergence Check Mode ConvCheckMode   .... Total+1el-Energy
 Convergence forced     ConvForced      .... 0
 Energy Change          TolE            ....  1.000e-08 Eh
 1-El. energy change                    ....  1.000e-05 Eh
 Orbital Gradient       TolG            ....  1.000e-05
 Orbital Rotation angle TolX            ....  1.000e-05
 DIIS Error             TolErr          ....  5.000e-07

------------------------------
INITIAL GUESS: MODEL POTENTIAL
------------------------------
Loading Hartree-Fock densities                     ... done
Calculating cut-offs                               ... done
Initializing the effective Hamiltonian             ... done
Setting up the integral package (SHARK)            ... done
Starting the Coulomb interaction                   ... done (   0.0 sec)
Making the grid                                    ... done (   0.1 sec)
Mapping shells                                     ... done
Starting the XC term evaluation                    ... done (   0.0 sec)
Transforming the Hamiltonian                       ... done (   0.0 sec)
Diagonalizing the Hamiltonian                      ... done (   0.0 sec)
Back transforming the eigenvectors                 ... done (   0.0 sec)
Now organizing SCF variables                       ... done
                      ------------------
                      INITIAL GUESS DONE (   0.1 sec)
                      ------------------
             **** ENERGY FILE WAS UPDATED (frag.en.tmp) ****
Finished Guess after   0.2 sec
Maximum memory used throughout the entire GUESS-calculation: 7.2 MB

-------------------------------------------------------------------------------------------
                                      ORCA LEAN-SCF
                              memory conserving SCF solver
-------------------------------------------------------------------------------------------

----------------------------------------D-I-I-S--------------------------------------------
Iteration    Energy (Eh)           Delta-E    RMSDP     MaxDP     DIISErr   Damp  Time(sec)
-------------------------------------------------------------------------------------------
               ***  Starting incremental Fock matrix formation  ***
    1    -303.5629022917148632     0.00e+00  6.27e-03  7.23e-02  3.30e-01  0.700   0.1
    2    -303.7254046052580634    -1.63e-01  4.27e-03  4.96e-02  2.01e-01  0.700   0.1
                               ***Turning on AO-DIIS***
    3    -303.8132137125145391    -8.78e-02  1.67e-03  2.15e-02  1.13e-01  0.700   0.1
    4    -303.8662511330678058    -5.30e-02  1.01e-03  1.39e-02  7.67e-02  0.700   0.1
    5    -303.9013083227303014    -3.51e-02  2.34e-03  3.30e-02  5.46e-02  0.000   0.1
    6    -303.9795013883435217    -7.82e-02  1.65e-04  1.84e-03  3.50e-03  0.000   0.1
                              *** Initializing SOSCF ***
---------------------------------------S-O-S-C-F--------------------------------------
Iteration    Energy (Eh)           Delta-E    RMSDP     MaxDP     MaxGrad    Time(sec)
--------------------------------------------------------------------------------------
    7    -303.9795655527315716    -6.42e-05  1.04e-04  8.06e-04  1.19e-03     0.1
               *** Restarting incremental Fock matrix formation ***
    8    -303.9795781559092802    -1.26e-05  4.76e-05  5.05e-04  2.45e-04     0.1
    9    -303.9795794957324233    -1.34e-06  2.99e-05  2.32e-04  9.65e-05     0.1
   10    -303.9795797454308968    -2.50e-07  3.92e-06  4.41e-05  3.62e-05     0.1
   11    -303.9795797591472706    -1.37e-08  9.14e-07  9.71e-06  6.26e-06     0.1
   12    -303.9795797596918305    -5.45e-10  1.87e-07  1.93e-06  1.05e-06     0.1
                 **** Energy Check signals convergence ****

               *****************************************************
               *                     SUCCESS                       *
               *           SCF CONVERGED AFTER  12 CYCLES          *
               *****************************************************

             **** ENERGY FILE WAS UPDATED (frag.en.tmp) ****

----------------
TOTAL SCF ENERGY
----------------

Total Energy       :       -303.97957975969183 Eh           -8271.70489 eV

Components:
Nuclear Repulsion  :        108.50726807045760 Eh            2952.63287 eV
Electronic Energy  :       -412.48684783014943 Eh          -11224.33776 eV
One Electron Energy:       -635.03011773820549 Eh          -17280.04800 eV
Two Electron Energy:        222.54326990805606 Eh            6055.71024 eV

Virial components:
Potential Energy   :       -609.50453810884324 Eh          -16585.46167 eV
Kinetic Energy     :        305.52495834915140 Eh            8313.75678 eV
Virial Ratio       :          1.99494189084319

---------------
SCF CONVERGENCE
---------------

  Last Energy change         ...    5.4456e-10  Tolerance :   1.0000e-08
  Last MAX-Density change    ...    1.9309e-06  Tolerance :   1.0000e-07
  Last RMS-Density change    ...    1.8688e-07  Tolerance :   5.0000e-09
  Last DIIS Error            ...    1.1887e-03  Tolerance :   5.0000e-07
  Last Orbital Gradient      ...    1.0547e-06  Tolerance :   1.0000e-05
  Last Orbital Rotation      ...    1.1603e-06  Tolerance :   1.0000e-05


----------------
ORBITAL ENERGIES
----------------

  NO   OCC          E(Eh)            E(eV) 
   0   2.0000     -20.543632      -559.0206 
   1   2.0000     -20.534633      -558.7758 
   2   2.0000     -20.525748      -558.5340 
   3   2.0000     -20.520090      -558.3800 
   4   2.0000      -1.397127       -38.0178 
   5   2.0000      -1.388171       -37.7741 
   6   2.0000      -1.378982       -37.5240 
   7   2.0000      -1.373665       -37.3793 
   8   2.0000      -0.759770       -20.6744 
   9   2.0000      -0.750631       -20.4257 
  10   2.0000      -0.742138       -20.1946 
  11   2.0000      -0.736119       -20.0308 
  12   2.0000      -0.594420       -16.1750 
  13   2.0000      -0.585823       -15.9411 
  14   2.0000      -0.577690       -15.7197 
  15   2.0000      -0.571436       -15.5496 
  16   2.0000      -0.510838       -13.9006 
  17   2.0000      -0.505943       -13.7674 
  18   2.0000      -0.487540       -13.2666 
  19   2.0000      -0.487394       -13.2627 
  20   0.0000       0.213131         5.7996 
  21   0.0000       0.230607         6.2751 
  22   0.0000       0.251100         6.8328 
  23   0.0000       0.260168         7.0795 
  24   0.0000       0.309346         8.4177 
  25   0.0000       0.337716         9.1897 
  26   0.0000       0.343835         9.3562 
  27   0.0000       0.349274         9.5042 
  28   0.0000       1.045737        28.4559 
  29   0.0000       1.050085        28.5743 
  30   0.0000       1.062186        28.9036 
*Only the first 10 virtual orbitals were printed.

                    ********************************
                    * MULLIKEN POPULATION ANALYSIS *
                    ********************************

-----------------------
MULLIKEN ATOMIC CHARGES
-----------------------
   0 O :   -0.887557
   1 H :    0.444730
   2 H :    0.442796
   3 O :   -0.891273
   4 H :    0.451978
   5 H :    0.438639
   6 O :   -0.888203
   7 H :    0.445657
   8 H :    0.443065
   9 O :   -0.886612
  10 H :    0.439663
  11 H :    0.447119
Sum of atomic charges:    0.0000000

--------------------------------
MULLIKEN REDUCED ORBITAL CHARGES
--------------------------------
  0 O s       :     3.844680  s :     3.844680
      pz      :     1.850775  p :     5.009701
      px      :     1.799594
      py      :     1.359333
      dz2     :     0.003143  d :     0.033177
      dxz     :     0.006998
      dyz     :     0.008340
      dx2y2   :     0.000842
      dxy     :     0.013854

  1 H s       :     0.555270  s :     0.555270

  2 H s       :     0.557204  s :     0.557204

  3 O s       :     3.845990  s :     3.845990
      pz      :     1.454999  p :     5.011857
      px      :     1.729970
      py      :     1.826887
      dz2     :     0.015060  d :     0.033426
      dxz     :     0.004352
      dyz     :     0.001212
      dx2y2   :     0.002696
      dxy     :     0.010106

  4 H s       :     0.548022  s :     0.548022

  5 H s       :     0.561361  s :     0.561361

  6 O s       :     3.846019  s :     3.846019
      pz      :     1.507443  p :     5.008681
      px      :     1.647292
      py      :     1.853946
      dz2     :     0.006748  d :     0.033503
      dxz     :     0.010852
      dyz     :     0.002596
      dx2y2   :     0.006445
      dxy     :     0.006863

  7 H s       :     0.554343  s :     0.554343

  8 H s       :     0.556935  s :     0.556935

  9 O s       :     3.846417  s :     3.846417
      pz      :     1.731730  p :     5.006686
      px      :     1.819193
      py      :     1.455762
      dz2     :     0.007178  d :     0.033509
      dxz     :     0.010436
      dyz     :     0.001691
      dx2y2   :     0.012461
      dxy     :     0.001743

 10 H s       :     0.560337  s :     0.560337

 11 H s       :     0.552881  s :     0.552881



                     *******************************
                     * LOEWDIN POPULATION ANALYSIS *
                     *******************************

----------------------
LOEWDIN ATOMIC CHARGES
----------------------
   0 O :   -0.625741
   1 H :    0.313640
   2 H :    0.312015
   3 O :   -0.627958
   4 H :    0.317477
   5 H :    0.310033
   6 O :   -0.626290
   7 H :    0.314136
   8 H :    0.312504
   9 O :   -0.624992
  10 H :    0.310492
  11 H :    0.314685

-------------------------------
LOEWDIN REDUCED ORBITAL CHARGES
-------------------------------
  0 O s       :     3.554904  s :     3.554904
      pz      :     1.856938  p :     5.028880
      px      :     1.809113
      py      :     1.362830
      dz2     :     0.003742  d :     0.041956
      dxz     :     0.007419
      dyz     :     0.011056
      dx2y2   :     0.001686
      dxy     :     0.018053

  1 H s       :     0.686360  s :     0.686360

  2 H s       :     0.687985  s :     0.687985

  3 O s       :     3.555589  s :     3.555589
      pz      :     1.459092  p :     5.030201
      px      :     1.739753
      py      :     1.831357
      dz2     :     0.019907  d :     0.042168
      dxz     :     0.005516
      dyz     :     0.001688
      dx2y2   :     0.002800
      dxy     :     0.012257

  4 H s       :     0.682523  s :     0.682523

  5 H s       :     0.689967  s :     0.689967

  6 O s       :     3.555658  s :     3.555658
      pz      :     1.512577  p :     5.028329
      px      :     1.660997
      py      :     1.854756
      dz2     :     0.009109  d :     0.042304
      dxz     :     0.013915
      dyz     :     0.003709
      dx2y2   :     0.007154
      dxy     :     0.008417

  7 H s       :     0.685864  s :     0.685864

  8 H s       :     0.687496  s :     0.687496

  9 O s       :     3.556051  s :     3.556051
      pz      :     1.737347  p :     5.026583
      px      :     1.823484
      py      :     1.465752
      dz2     :     0.009073  d :     0.042358
      dxz     :     0.012629
      dyz     :     0.002249
      dx2y2   :     0.016285
      dxy     :     0.002122

 10 H s       :     0.689508  s :     0.689508

 11 H s       :     0.685315  s :     0.685315



                      *****************************
                      * MAYER POPULATION ANALYSIS *
                      *****************************

  NA   - Mulliken gross atomic population
  ZA   - Total nuclear charge
  QA   - Mulliken gross atomic charge
  VA   - Mayer's total valence
  BVA  - Mayer's bonded valence
  FA   - Mayer's free valence

  ATOM       NA         ZA         QA         VA         BVA        FA
  0 O      8.8876     8.0000    -0.8876     1.5571     1.5571    -0.0000
  1 H      0.5553     1.0000     0.4447     0.7671     0.7671     0.0000
  2 H      0.5572     1.0000     0.4428     0.7699     0.7699     0.0000
  3 O      8.8913     8.0000    -0.8913     1.5507     1.5507    -0.0000
  4 H      0.5480     1.0000     0.4520     0.7622     0.7622    -0.0000
  5 H      0.5614     1.0000     0.4386     0.7709     0.7709    -0.0000
  6 O      8.8882     8.0000    -0.8882     1.5538     1.5538     0.0000
  7 H      0.5543     1.0000     0.4457     0.7659     0.7659     0.0000
  8 H      0.5569     1.0000     0.4431     0.7677     0.7677    -0.0000
  9 O      8.8866     8.0000    -0.8866     1.5574     1.5574     0.0000
 10 H      0.5603     1.0000     0.4397     0.7701     0.7701     0.0000
 11 H      0.5529     1.0000     0.4471     0.7665     0.7665    -0.0000

  Mayer bond orders larger than 0.100000
B(  0-O ,  1-H ) :   0.7765 B(  0-O ,  2-H ) :   0.7761 B(  3-O ,  4-H ) :   0.7703 
B(  3-O ,  5-H ) :   0.7805 B(  6-O ,  7-H ) :   0.7755 B(  6-O ,  8-H ) :   0.7772 
B(  9-O , 10-H ) :   0.7794 B(  9-O , 11-H ) :   0.7731 

-------
TIMINGS
-------

Total SCF time: 0 days 0 hours 0 min 1 sec 

Total time                  ....       1.500 sec
Sum of individual times     ....       1.436 sec  ( 95.7%)

SCF preparation             ....       0.086 sec  (  5.8%)
Fock matrix formation       ....       1.081 sec  ( 72.0%)
  Startup                   ....       0.028 sec  (  2.6% of F)
  Coulomb+Exchange Fock     ....       0.975 sec  ( 90.2% of F)
Diagonalization             ....       0.000 sec  (  0.0%)
Density matrix formation    ....       0.077 sec  (  5.1%)
Total Energy calculation    ....       0.019 sec  (  1.2%)
Population analysis         ....       0.012 sec  (  0.8%)
Orbital Transformation      ....       0.015 sec  (  1.0%)
Orbital Orthonormalization  ....       0.000 sec  (  0.0%)
DIIS solution               ....       0.105 sec  (  7.0%)
SOSCF solution              ....       0.040 sec  (  2.7%)
Finished LeanSCF after   1.5 sec

Maximum memory used throughout the entire LEANSCF-calculation: 8.1 MB

-------------------------   --------------------
FINAL SINGLE POINT ENERGY      -303.979579759692
-------------------------   --------------------

------------------------------------------------------------------------------
                         ORCA SCF GRADIENT CALCULATION
------------------------------------------------------------------------------

Nuc. rep. gradient        (SHARK) ... done (  0.0 sec)
HCore & Overlap gradient  (SHARK) ... done (  0.0 sec)
Two-electron gradient     (SHARK) ... done (  0.3 sec)

------------------
CARTESIAN GRADIENT
------------------

   1   O   :    0.095046824    0.013677596    0.081722854
   2   H   :   -0.047206992    0.086102836   -0.055681882
   3   H   :   -0.046559730   -0.099413449   -0.024942528
   4   O   :   -0.088446101    0.053974129    0.069227106
   5   H   :    0.007579035    0.011422772   -0.113849697
   6   H   :    0.080816204   -0.064558998    0.044347028
   7   O   :   -0.115647763   -0.004239847    0.046658665
   8   H   :    0.088005733    0.045819110    0.054799990
   9   H   :    0.027564940   -0.042143268   -0.101296403
  10   O   :   -0.062565125    0.072375577   -0.079143512
  11   H   :   -0.003042932   -0.112811127   -0.006123562
  12   H   :    0.064455906    0.039794669    0.084281941

Difference to translation invariance:
           :   -0.0000000000    0.0000000000   -0.0000000001

Difference to rotation invariance:
           :   -0.0000000485    0.0000003306   -0.0000000568

Norm of the Cartesian gradient     ...    0.4060834295
RMS gradient                       ...    0.0676805716
MAX gradient                       ...    0.1156477626

-------
TIMINGS
-------

Total SCF gradient time     ....        0.375 sec

Densities                   ....       0.000 sec  (  0.0%)
One electron gradient       ....       0.041 sec  ( 11.0%)
Two electron gradient       ....       0.334 sec  ( 89.0%)

Maximum memory used throughout the entire SCFGRAD-calculation: 13.9 MB

------------------------------------------------------------------------------
                              ORCA PROPERTY CALCULATIONS
------------------------------------------------------------------------------

GBWName                                 ... frag.gbw
Number of atoms                         ...     12
Number of basis functions               ...     72
Max core memory                         ...   1024 MB

Electric properties:
Dipole moment                           ... YES
Quadrupole moment                       ...  NO
Static polarizability (Dipole/Dipole)   ...  NO
Static polarizability (Dipole/Quad.)    ...  NO
Static polarizability (Quad./Quad.)     ...  NO
Static polarizability (Velocity)        ...  NO

Atomic electric properties:
Dipole moment                           ...  NO
Quadrupole moment                       ...  NO
Static polarizability                   ...  NO

Choice of electric origin               ... Center of mass
Position of electric origin             ...    41.060219    88.913997    77.041225

General magnetic properties:
Magnetizability                         ...  NO

EPR properties:
g-Tensor (aka g-matrix)                 ...  NO
Zero-Field splitting spin-orbit         ...  NO
Zero-field splitting spin-spin          ...  NO
Hyperfine couplings                     ...  NO (   0 nuclei)
Quadrupole couplings                    ...  NO (   0 nuclei)
Contact density                         ...  NO (   0 nuclei)

NMR properties:
Chemical shifts                         ...  NO (   0 nuclei)
Spin-rotation constants                 ...  NO (   0 nuclei)
Spin-spin couplings                     ...  NO (   0 nuclei,    0 pairs)

Choice of magnetic origin               ... GIAO
Position of magnetic origin             ...     0.000000     0.000000     0.000000

Properties with geometric perturbations:
SCF Hessian                             ...  NO
IR spectrum                             ...  NO
VCD spectrum                            ...  NO
X-ray spectroscopy properties:
SCF XES/XAS/RIXS spectra                ...  NO


-------------
DIPOLE MOMENT
-------------

Method             : SCF
Type of density    : Electron Density
Multiplicity       :   1
Irrep              :   0
Energy             :  -303.9795797596918305 Eh
Relativity type    : 
Basis              : AO
                                X                 Y                 Z
Electronic contribution:      0.072085961      -0.094051131      -0.027268205
Nuclear contribution   :     -1.237120967       1.022771456       0.831286892
                        -----------------------------------------
Total Dipole Moment    :     -1.165035006       0.928720325       0.804018687
                        -----------------------------------------
Magnitude (a.u.)       :      1.693007400
Magnitude (Debye)      :      4.303282824



--------------------
Rotational spectrum 
--------------------
 
Rotational constants in cm-1:             0.063872             0.038978             0.027666 
Rotational constants in MHz :          1914.846036          1168.532415           829.406465 

Dipole components along the rotational axes: 
x,y,z [a.u.] :     0.402970    -1.190793     1.133976 
x,y,z [Debye]:     1.024268    -3.026755     2.882338 

 

Dipole moment calculation done in   0.0 sec 

Maximum memory used throughout the entire PROP-calculation: 2.6 MB

--------------------------------
SUGGESTED CITATIONS FOR THIS RUN
--------------------------------

Below you find a list of papers that are relevant to this ORCA run
We neither can nor want to force you to cite these papers, but we appreciate if you do
You receive ORCA, which is the product of decades of hard work by many enthusiastic individuals, for free
The only thing we kindly ask in return is that you cite our papers,
We deeply appreciate it, if you show your appreciation for ORCA by not just citing the generic ORCA reference.

Please note that relegating all ORCA citations to the supporting information does *not* help us.
SI sections are not indexed - citations you put there will not count into any citation statistics
But we need these citations in order to attract the funding resources that allow us to do what we are doing

Therefore, if you are a happy ORCA user, please consider citing a few of the papers listed below in the main body of your paper

In addition to the list printed below, the program has created the file frag.bibtex that contains the list in bibtex format
You can import this file easily into all common literature databanks and citation aid programs


List of essential papers. We consider these as the minimum necessary citations

  1. Neese,F.
     Software update: the ORCA program system, version 5.0
     WIRES Comput. Molec. Sci., 2022 12(1)e1606
     doi.org/10.1002/wcms.1606

List of papers to cite with high priority. The work reported in these papers was absolutely
necessary for this run to complete.
Our perspective: the developers of density functionals and basis sets usually get cited in chemistry papers
Good! But without the algorithms to do something with them, the functionals or basis sets would not do anything.
Hence, in our opinion, the algorithm design and method developments papers are equally worthy of getting cited

  1. Neese,F.
     The SHARK Integral Generation and Digestion System
     J. Comp. Chem., 2022  1-16
     doi.org/10.1002/jcc.26942

List of suggested additional citations. These are papers that are important in the 'surrounding' of 
of this run, or papers that preceded the highly important papers. If you like your results we are grateful for a citation.

  1. Neese,F.
     The ORCA program system
     WIRES Comput. Molec. Sci., 2012 2(1)73-78
     doi.org/10.1002/wcms.81
  2. Neese,F.
     Software update: the ORCA program system, version 4.0
     WIRES Comput. Molec. Sci., 2018 8(1)1-6
     doi.org/10.1002/wcms.1327
  3. Neese,F.; Wennmohs,F.; Becker,U.; Riplinger,C.
     The ORCA quantum chemistry program package
     J. Chem. Phys., 2020 152 Art. No. L224108
     doi.org/10.1063/5.0004608

List of optional additional citations

  1. Neese,F.
     Approximate second-order SCF convergence for spin unrestricted wavefunctions
     Chem. Phys. Lett., 2000 325(1-3)93-98
     doi.org/10.1016/s0009-2614(00)00662-x

Timings for individual modules:

Sum of individual times          ...        2.827 sec (=   0.047 min)
Startup calculation              ...        0.535 sec (=   0.009 min)  18.9 %
SCF iterations                   ...        1.772 sec (=   0.030 min)  62.7 %
Property calculations            ...        0.072 sec (=   0.001 min)   2.5 %
SCF Gradient evaluation          ...        0.449 sec (=   0.007 min)  15.9 %
                             ****ORCA TERMINATED NORMALLY****
TOTAL RUN TIME: 0 days 0 hours 0 minutes 3 seconds 128 msec
