
                                 *****************
                                 * O   R   C   A *
                                 *****************

                                            #,                                       
                                            ###                                      
                                            ####                                     
                                            #####                                    
                                            ######                                   
                                           ########,                                 
                                     ,,################,,,,,                         
                               ,,#################################,,                 
                          ,,##########################################,,             
                       ,#########################################, ''#####,          
                    ,#############################################,,   '####,        
                  ,##################################################,,,,####,       
                ,###########''''           ''''###############################       
              ,#####''   ,,,,##########,,,,          '''####'''          '####       
            ,##' ,,,,###########################,,,                        '##       
           ' ,,###''''                  '''############,,,                           
         ,,##''                                '''############,,,,        ,,,,,,###''
      ,#''                                            '''#######################'''  
     '                                                          ''''####''''         
             ,#######,   #######,   ,#######,      ##                                
            ,#'     '#,  ##    ##  ,#'     '#,    #''#        ,####,   ,####,        
            ##       ##  ##   ,#'  ##            #'  '#       #'       #'  '#        
            ##       ##  #######   ##           ,######,      #####,   #    #        
            '#,     ,#'  ##    ##  '#,     ,#' ,#      #,     #,   #   #,  ,#        
             '#######'   ##     ##  '#######'  #'      '#     '####' # '####'        



                #########################################################
                #                        -***-                          #
                #          Department of theory and spectroscopy        #
                #                                                       #
                #                      Frank Neese                      #
                #                                                       #
                #     Directorship, Architecture, Infrastructure        #
                #                    SHARK, DRIVERS                     #
                #        Core code/Algorithms in most modules           #
                #                                                       #
                #        Max Planck Institute fuer Kohlenforschung      #
                #                Kaiser Wilhelm Platz 1                 #
                #                 D-45470 Muelheim/Ruhr                 #
                #                      Germany                          #
                #                                                       #
                #                  All rights reserved                  #
                #                        -***-                          #
                #########################################################


                         Program Version 6.0.1  -  RELEASE   -


 With contributions from (in alphabetic order):
[Max-Planck-Institut fuer Kohlenforschung]                               
  Daniel Aravena         : Magnetic Suceptibility                        
  Michael Atanasov       : Ab Initio Ligand Field Theory (pilot matlab implementation)
  Alexander A. Auer      : GIAO ZORA, VPT2 properties, NMR spectrum      
  Ute Becker             : All parallelization in ORCA, NUMFREQ, NUMCALC 
  Giovanni Bistoni       : ED, misc. LED, open-shell LED, HFLD           
  Martin Brehm           : Molecular dynamics                            
  Dmytro Bykov           : pre 5.0 version of the SCF Hessian            
  Marcos Casanova-Páez   : Triplet and SCS-CIS(D). UHF-(DLPNO)-IP/EA/STEOM-CCSD. UHF-CVS-IP/STEOM-CCSD   
  Vijay G. Chilkuri      : MRCI spin determinant printing, contributions to CSF-ICE 
  Pauline Colinet        : FMM embedding                                 
  Dipayan Datta          : RHF DLPNO-CCSD density                        
  Achintya Kumar Dutta   : EOM-CC, STEOM-CC                              
  Nicolas Foglia         : Exact transition moments, OPA infrastructure, MCD improvements    
  Dmitry Ganyushin       : Spin-Orbit,Spin-Spin,Magnetic field MRCI      
  Miquel Garcia-Rates    : C-PCM and meta-GGA Hessian, CCSD/C-PCM, Gaussian charge scheme 
  Tiago L. C. Gouveia    : GS-ROHF, GS-ROCIS                             
  Yang Guo               : DLPNO-NEVPT2, F12-NEVPT2, CIM, IAO-localization        
  Andreas Hansen         : Spin unrestricted coupled pair/coupled cluster methods 
  Ingolf Harden          : AUTO-CI MPn and infrastructure                
  Benjamin Helmich-Paris : MC-RPA, TRAH-(SCF,CASSCF), AVAS, COSX integrals, SCF dyn. polar. 
  Lee Huntington         : MR-EOM, pCC                                   
  Robert Izsak           : Overlap fitted RIJCOSX, COSX-SCS-MP3, EOM     
  Riya Kayal             : Wick's Theorem for AUTO-CI, AUTO-CI UHF-CCSDT 
  Emily Kempfer          : AUTO-CI, RHF CISDT and CCSDT                  
  Christian Kollmar      : KDIIS, OOCD, Brueckner-CCSD(T), CCSD density, CASPT2, CASPT2-K, improved NEVPT2 
  Axel Koslowski         : Symmetry handling                             
  Simone Kossmann        : meta-GGA functionals, TD-DFT gradient, OOMP2, (MP2 Hessian; deprecated post 5.0) 
  Lucas Lang             : DCDCAS                                        
  Marvin Lechner         : AUTO-CI (C++ implementation), FIC-MRCC        
  Spencer Leger          : CASSCF response                               
  Dagmar Lenk            : GEPOL surface, SMD, ORCA-2-JSON               
  Dimitrios Liakos       : Extrapolation schemes; Compound Job, initial MDCI parallelization 
  Dimitrios Manganas     : Further ROCIS development; embedding schemes. LFT, Crystal Embedding 
  Dimitrios Pantazis     : SARC Basis sets                               
  Anastasios Papadopoulos: AUTO-CI, single reference methods and gradients 
  Taras Petrenko         : pre 6.0 DFT Hessian and TD-DFT gradient, (ASA, deprecated), ECA, 1-Electron XAS/XES, NRVS 
  Peter Pinski           : DLPNO-MP2, DLPNO-MP2 Gradient                 
  Christoph Reimann      : Effective Core Potentials                     
  Marius Retegan         : Local ZFS, SOC                                
  Christoph Riplinger    : Optimizer, TS searches, QM/MM, DLPNO-CCSD(T), (RO)-DLPNO pert. Triples 
  Michael Roemelt        : Original ROCIS implementation                 
  Masaaki Saitow         : Open-shell DLPNO-CCSD energy and density      
  Barbara Sandhoefer     : DKH picture change effects                    
  Kantharuban Sivalingam : CASSCF convergence/infrastructure, NEVPT2 and variants, FIC-MRCI 
  Bernardo de Souza      : ESD, SOC TD-DFT                               
  Georgi L. Stoychev     : AutoAux, RI-MP2 NMR, DLPNO-MP2 response, X2C  
  Van Anh Tran           : RI-MP2 g-tensors                              
  Willem Van den Heuvel  : Paramagnetic NMR                              
  Zikuan Wang            : NOTCH, Electric field optimization            
  Frank Wennmohs         : Technical directorship and infrastructure     
  Hang Xu                : AUTO-CI-Response properties                   
                                                                         
[FACCTs GmbH]                                                            
  Markus Bursch, Miquel Garcia-Rates, Christoph Riplinger, Bernardo de Souza, Georgi L. Stoychev 
                                                                 
  APM, Basis sets (HGBS, AHGBS, def-TZVP (Ac-Lr), def2-XVPD (La-Lu)), CI-OPT, improved COSX, DLPNO-Multilevel,           
  DOCKER, DRACO, updates on ESD, GOAT, IRC, LR-CPCM, MBIS, meta-GGA TD-DFT gradient, ML-optimized integration grids, 
  MM, NACMEs, nearIR, NEB, NEB-TS, NL-DFT gradient (VV10), 2- and 3-layer-ONIOM, interface openCOSMO-RS, QMMM,   
  Crystal-QMMM, SF, symmetry and pop. for TD-DFT, r2SCAN hybrids, SOLVATOR                                   
                                                                         
[Other institutions]                                                     
  V. Asgeirsson          : NEB                                           
  Christoph Bannwarth    : sTDA-DFT, sTD-DFT, PBEh-3c, B97-3c, D3        
  Sebastian Ehlert       : rSCAN, r2SCAN, r2SCAN-3c, D4, dhf basis sets  
  Marvin Friede          : D4 for Fr, Ra, Ac-Lr                          
  Lars Goerigk           : TD-DFT with DH, B97 family of functionals     
  Stefan Grimme          : VdW corrections, initial TS optimization, DFT functionals, gCP, sTDA/sTD-DF 
  Waldemar Hujo          : DFT-NL                                        
  H. Jonsson             : NEB                                           
  Holger Kruse           : gCP                                           
  Marcel Mueller         : wB97X-3c, vDZP basis set                      
  Hagen Neugebauer       : wr2SCAN                                       
  Tobias Risthaus        : range-separated hybrid DFT                    
  Lukas Wittmann         : regularized MP2, r2SCAN double-hybrids, wr2SCAN        
                                                                         
We gratefully acknowledge several colleagues who have allowed us to      
interface, adapt or use parts of their codes:                            
  Ed Valeev, F. Pavosevic, A. Kumar             : LibInt (2-el integral package), F12 methods 
  Garnet Chan, S. Sharma, J. Yang, R. Olivares  : DMRG                   
  Ulf Ekstrom                                   : XCFun DFT Library      
  Mihaly Kallay                                 : mrcc  (arbitrary order and MRCC methods)
  Frank Weinhold                                : gennbo (NPA and NBO analysis)           
  Simon Mueller                                 : openCOSMO-RS                            
  Christopher J. Cramer and Donald G. Truhlar   : smd solvation model                     
  S Lehtola, MJT Oliveira, MAL Marques          : LibXC Library                           
  Liviu Ungur et al                             : ANISO software                          


 Your calculation uses the libint2 library for the computation of 2-el integrals
 For citations please refer to: http://libint.valeyev.net

 Your ORCA version has been built with support for libXC version: 6.2.2
 For citations please refer to: https://libxc.gitlab.io

 This ORCA versions uses:
   CBLAS   interface :  Fast vector & matrix operations
   LAPACKE interface :  Fast linear algebra routines
   SCALAPACK package :  Parallel linear algebra routines
   Shared memory     :  Shared parallel matrices
   BLAS/LAPACK       :  OpenBLAS 0.3.27  USE64BITINT DYNAMIC_ARCH NO_AFFINITY SkylakeX SINGLE_THREADED
        Core in use  :  SkylakeX
   Copyright (c) 2011-2014, The OpenBLAS Project


================================================================================

----- Orbital basis set information -----
Your calculation utilizes the basis: 6-31G*
   H-He, Li-Ne : W. J. Hehre, R. Ditchfield and J.A. Pople, J. Chem. Phys. 56, 2257 (1972).
                 Note: He and Ne are unpublished basis sets taken from the Gaussian program.
                 Note: Li and B from J. D. Dill and J. A. Pople, J. Chem. Phys. 62, 2921 (1975).
   Na - Ar     : M. M. Francl, W. J. Pietro, W. J. Hehre, J. S. Binkley, M. S. Gordon, 
                 D. J. DeFrees and J. A. Pople, J. Chem. Phys. 77, 3654 (1982).
   K - Zn      : V. A. Rassolov, J. A. Pople, M. A. Ratner, and T. L. Windus, J. Chem. Phys. 109, 1223 (1998).

================================================================================
                                        WARNINGS
                       Please study these warnings very carefully!
================================================================================


================================================================================
                                       INPUT FILE
================================================================================
NAME = frag.inp
|  1> !HF 6-31G* EnGrad
|  2> %pal nprocs 1 end
|  3> *xyz 0 1
|  4> O 24.10596000 46.93173000 41.50917000
|  5> H 24.52341000 46.31399000 41.96223000
|  6> H 24.52212000 47.66562000 41.73132000
|  7> O 20.35232000 49.63574000 40.01023000
|  8> H 20.79050000 48.92392000 40.26012000
|  9> H 19.54326000 49.49202000 40.30334000
| 10> O 21.78987000 47.25010000 37.48256000
| 11> H 21.67133000 47.22017000 38.34638000
| 12> H 21.14108000 47.76263000 37.20411000
| 13> O 22.25294000 44.28778000 39.87163000
| 14> H 22.68414000 43.83080000 40.47691000
| 15> H 22.81575000 44.91633000 39.64956000
| 16> *
| 17> 
| 18>                          ****END OF INPUT****
================================================================================

                     *******************************
                     * Energy+Gradient Calculation *
                     *******************************

---------------------------------
CARTESIAN COORDINATES (ANGSTROEM)
---------------------------------
  O     24.105960   46.931730   41.509170
  H     24.523410   46.313990   41.962230
  H     24.522120   47.665620   41.731320
  O     20.352320   49.635740   40.010230
  H     20.790500   48.923920   40.260120
  H     19.543260   49.492020   40.303340
  O     21.789870   47.250100   37.482560
  H     21.671330   47.220170   38.346380
  H     21.141080   47.762630   37.204110
  O     22.252940   44.287780   39.871630
  H     22.684140   43.830800   40.476910
  H     22.815750   44.916330   39.649560

----------------------------
CARTESIAN COORDINATES (A.U.)
----------------------------
  NO LB      ZA    FRAG     MASS         X           Y           Z
   0 O     8.0000    0    15.999   45.553663   88.688117   78.440963
   1 H     1.0000    0     1.008   46.342529   87.520757   79.297123
   2 H     1.0000    0     1.008   46.340091   90.074968   78.860766
   3 O     8.0000    0    15.999   38.460311   93.797955   75.608377
   4 H     1.0000    0     1.008   39.288351   92.452810   76.080601
   5 H     1.0000    0     1.008   36.931409   93.526364   76.162275
   6 O     8.0000    0    15.999   41.176887   89.289749   70.831773
   7 H     1.0000    0     1.008   40.952879   89.233189   72.464156
   8 H     1.0000    0     1.008   39.950851   90.258290   70.305579
   9 O     8.0000    0    15.999   42.051962   83.691775   75.346461
  10 H     1.0000    0     1.008   42.866812   82.828208   76.490275
  11 H     1.0000    0     1.008   43.115519   84.879563   74.926810

--------------------------------
INTERNAL COORDINATES (ANGSTROEM)
--------------------------------
 O      0   0   0     0.000000000000     0.00000000     0.00000000
 H      1   0   0     0.872427976225     0.00000000     0.00000000
 H      1   2   0     0.872430111929   103.60043743     0.00000000
 O      1   2   3     4.862952236379   157.38780147   238.36472283
 H      4   1   2     0.872430190273    21.62011441   320.05077009
 H      4   1   2     0.872437386922   121.37625074   357.75029485
 O      5   4   1     3.393413229022   108.41619438   262.70415579
 H      7   5   4     0.872429096775    33.53678511   194.84682685
 H      7   5   4     0.872439033687    75.66802933   340.40737457
 O      8   7   5     3.356124083925   117.15578849   176.14439446
 H     10   8   7     0.872426523439   149.16283161   122.62062527
 H     10   8   7     0.872436406565    50.70030800    83.72012381

---------------------------
INTERNAL COORDINATES (A.U.)
---------------------------
 O      0   0   0     0.000000000000     0.00000000     0.00000000
 H      1   0   0     1.648649946636     0.00000000     0.00000000
 H      1   2   0     1.648653982532   103.60043743     0.00000000
 O      1   2   3     9.189647929096   157.38780147   238.36472283
 H      4   1   2     1.648654130581    21.62011441   320.05077009
 H      4   1   2     1.648667730277   121.37625074   357.75029485
 O      5   4   1     6.412621662077   108.41619438   262.70415579
 H      7   5   4     1.648652064169    33.53678511   194.84682685
 H      7   5   4     1.648670842211    75.66802933   340.40737457
 O      8   7   5     6.342155390075   117.15578849   176.14439446
 H     10   8   7     1.648647201269   149.16283161   122.62062527
 H     10   8   7     1.648665877670    50.70030800    83.72012381

---------------------
BASIS SET INFORMATION
---------------------
There are 2 groups of distinct atoms

 Group   1 Type O   : 10s4p1d contracted to 3s2p1d pattern {631/31/1}
 Group   2 Type H   : 4s contracted to 2s pattern {31}

Atom   0O    basis set group =>   1
Atom   1H    basis set group =>   2
Atom   2H    basis set group =>   2
Atom   3O    basis set group =>   1
Atom   4H    basis set group =>   2
Atom   5H    basis set group =>   2
Atom   6O    basis set group =>   1
Atom   7H    basis set group =>   2
Atom   8H    basis set group =>   2
Atom   9O    basis set group =>   1
Atom  10H    basis set group =>   2
Atom  11H    basis set group =>   2
------------------------------------------------------------------------------
                             ORCA STARTUP CALCULATIONS
------------------------------------------------------------------------------
------------------------------------------------------------------------------
                   ___                                                        
                  /   \      - P O W E R E D   B Y -                         
                 /     \                                                     
                 |  |  |   _    _      __       _____    __    __             
                 |  |  |  | |  | |    /  \     |  _  \  |  |  /  |          
                  \  \/   | |  | |   /    \    | | | |  |  | /  /          
                 / \  \   | |__| |  /  /\  \   | |_| |  |  |/  /          
                |  |  |   |  __  | /  /__\  \  |    /   |      \           
                |  |  |   | |  | | |   __   |  |    \   |  |\   \          
                \     /   | |  | | |  |  |  |  | |\  \  |  | \   \       
                 \___/    |_|  |_| |__|  |__|  |_| \__\ |__|  \__/        
                                                                              
                      - O R C A' S   B I G   F R I E N D -                    
                                      &                                       
                       - I N T E G R A L  F E E D E R -                       
                                                                              
 v1 FN, 2020, v2 2021, v3 2022-2024                                           
------------------------------------------------------------------------------


----------------------
SHARK INTEGRAL PACKAGE
----------------------

Number of atoms                             ...     12
Number of basis functions                   ...     72
Number of shells                            ...     40
Maximum angular momentum                    ...      2
Integral batch strategy                     ... SHARK/LIBINT Hybrid
RI-J (if used) integral strategy            ... SPLIT-RIJ (Revised 2003 algorithm where possible)
Printlevel                                  ...      1
Contraction scheme used                     ... SEGMENTED contraction
Prescreening option                         ... SCHWARTZ
   Thresh                                   ... 2.500e-11
   Tcut                                     ... 2.500e-12
   Tpresel                                  ... 2.500e-12 
Coulomb Range Separation                    ... NOT USED
Exchange Range Separation                   ... NOT USED
Multipole approximations                    ... NOT USED
Finite Nucleus Model                        ... NOT USED
CABS basis                                  ... NOT available
Auxiliary Coulomb fitting basis             ... NOT available
Auxiliary J/K fitting basis                 ... NOT available
Auxiliary Correlation fitting basis         ... NOT available
Auxiliary 'external' fitting basis          ... NOT available

Checking pre-screening integrals            ... done (  0.0 sec) Dimension = 40
Check shell pair data                       ... done (  0.0 sec)
Shell pair information
Shell pair cut-off parameter TPreSel        ...   2.5e-12
Total number of shell pairs                 ...       820
Shell pairs after pre-screening             ...       684
Total number of primitive shell pairs       ...      4386
Primitive shell pairs kept                  ...      2302
          la=0 lb=0:    342 shell pairs
          la=1 lb=0:    191 shell pairs
          la=1 lb=1:     33 shell pairs
          la=2 lb=0:     84 shell pairs
          la=2 lb=1:     26 shell pairs
          la=2 lb=2:      8 shell pairs

Calculating one electron integrals          ... done (  0.0 sec)
Calculating Nuclear repulsion               ... done (  0.0 sec) ENN=    114.548405480335 Eh

Diagonalization of the overlap matrix:
Smallest eigenvalue                        ... 4.261e-02
Time for diagonalization                   ...    0.001 sec
Threshold for overlap eigenvalues          ... 1.000e-07
Number of eigenvalues below threshold      ... 0
Time for construction of square roots      ...    0.005 sec
Total time needed                          ...    0.011 sec

-------------------
DFT GRID GENERATION
-------------------

General Integration Accuracy     IntAcc      ... 4.388
Radial Grid Type                 RadialGrid  ... OptM3 with GC (2021)
Angular Grid (max. ang.)         AngularGrid ... 4 (Lebedev-302)
Angular grid pruning method      GridPruning ... 4 (adaptive)
Weight generation scheme         WeightScheme... mBecke (2022)
Basis function cutoff            BFCut       ... 1.0000e-11
Integration weight cutoff        WCut        ... 1.0000e-14
Partially contracted basis set               ... off
Rotationally invariant grid construction     ... off
Angular grids for H and He will be reduced by one unit

Total number of grid points                  ...    50864
Total number of batches                      ...      799
Average number of points per batch           ...       63
Average number of grid points per atom       ...     4239
Initializing property integral containers    ... done (  0.0 sec)

SHARK setup successfully completed in   0.4 seconds

Maximum memory used throughout the entire STARTUP-calculation: 17.3 MB
-------------------------------------------------------------------------------
                                 ORCA GUESS
                   Start orbitals & Density for SCF / CASSCF
-------------------------------------------------------------------------------

------------
SCF SETTINGS
------------
Hamiltonian:
 Ab initio Hamiltonian  Method          .... Hartree-Fock(GTOs)


General Settings:
 Integral files         IntName         .... frag
 Hartree-Fock type      HFTyp           .... RHF
 Total Charge           Charge          ....    0
 Multiplicity           Mult            ....    1
 Number of Electrons    NEL             ....   40
 Basis Dimension        Dim             ....   72
 Nuclear Repulsion      ENuc            ....    114.5484054803 Eh

Convergence Acceleration:
 AO-DIIS                CNVDIIS         .... on
   Start iteration      DIISMaxIt       ....    12
   Startup error        DIISStart       ....  0.200000
   # of expansion vecs  DIISMaxEq       ....     5
   Bias factor          DIISBfac        ....   1.050
   Max. coefficient     DIISMaxC        ....  10.000
 MO-DIIS                CNVKDIIS        .... off
 Trust-Rad. Augm. Hess. CNVTRAH         .... auto
   Auto Start mean grad. ratio tolernc. ....  1.125000
   Auto Start start iteration           ....    50
   Auto Start num. interpolation iter.  ....    10
   Max. Number of Micro iterations      ....    24
   Max. Number of Macro iterations      .... Maxiter - #DIIS iter
   Number of Davidson start vectors     ....     2
   Converg. threshold    (grad. norm)   ....   1.000e-05
   Grad. Scal. Fac. for Micro threshold ....   0.100
   Minimum threshold for Micro iter.    ....   1.000e-02
   NR start threshold (gradient norm)   ....   1.000e-04
   Initial trust radius                 ....   0.400
   Minimum AH scaling param. (alpha)    ....   1.000
   Maximum AH scaling param. (alpha)    .... 1000.000
   Quad. conv. algorithm                .... NR
   White noise on init. David. guess    .... on
   Maximum white noise                  ....   0.010
   Pseudo random numbers                .... off
   Inactive MOs                         .... canonical
   Orbital update algorithm             .... Taylor
   Preconditioner                       .... Diag
   Full preconditioner red. dimension   ....   250
 SOSCF                  CNVSOSCF        .... on
   Start iteration      SOSCFMaxIt      ....   150
   Startup grad/error   SOSCFStart      ....  0.003300
   Hessian update       SOSCFHessUp     .... L-BFGS
 Level Shifting         CNVShift        .... on
   Level shift para.    LevelShift      ....    0.2500
   Turn off err/grad.   ShiftErr        ....    0.0010
 Zerner damping         CNVZerner       .... off
 Static damping         CNVDamp         .... on
   Fraction old density DampFac         ....    0.7000
   Max. Damping (<1)    DampMax         ....    0.9800
   Min. Damping (>=0)   DampMin         ....    0.0000
   Turn off err/grad.   DampErr         ....    0.1000

SCF Procedure:
 Maximum # iterations   MaxIter         ....   125
 SCF integral mode      SCFMode         .... Direct
   Integral package                     .... SHARK and LIBINT hybrid scheme
 Reset frequency        DirectResetFreq ....    20
 Integral Threshold     Thresh          ....  2.500e-11 Eh
 Primitive CutOff       TCut            ....  2.500e-12 Eh

Convergence Tolerance:
 Convergence Check Mode ConvCheckMode   .... Total+1el-Energy
 Convergence forced     ConvForced      .... 0
 Energy Change          TolE            ....  1.000e-08 Eh
 1-El. energy change                    ....  1.000e-05 Eh
 Orbital Gradient       TolG            ....  1.000e-05
 Orbital Rotation angle TolX            ....  1.000e-05
 DIIS Error             TolErr          ....  5.000e-07

------------------------------
INITIAL GUESS: MODEL POTENTIAL
------------------------------
Loading Hartree-Fock densities                     ... done
Calculating cut-offs                               ... done
Initializing the effective Hamiltonian             ... done
Setting up the integral package (SHARK)            ... done
Starting the Coulomb interaction                   ... done (   0.0 sec)
Making the grid                                    ... done (   0.1 sec)
Mapping shells                                     ... done
Starting the XC term evaluation                    ... done (   0.0 sec)
Transforming the Hamiltonian                       ... done (   0.0 sec)
Diagonalizing the Hamiltonian                      ... done (   0.0 sec)
Back transforming the eigenvectors                 ... done (   0.0 sec)
Now organizing SCF variables                       ... done
                      ------------------
                      INITIAL GUESS DONE (   0.1 sec)
                      ------------------
             **** ENERGY FILE WAS UPDATED (frag.en.tmp) ****
Finished Guess after   0.2 sec
Maximum memory used throughout the entire GUESS-calculation: 7.3 MB

-------------------------------------------------------------------------------------------
                                      ORCA LEAN-SCF
                              memory conserving SCF solver
-------------------------------------------------------------------------------------------

----------------------------------------D-I-I-S--------------------------------------------
Iteration    Energy (Eh)           Delta-E    RMSDP     MaxDP     DIISErr   Damp  Time(sec)
-------------------------------------------------------------------------------------------
               ***  Starting incremental Fock matrix formation  ***
    1    -303.5680666654393463     0.00e+00  6.26e-03  7.27e-02  3.31e-01  0.700   0.1
    2    -303.7297423604279629    -1.62e-01  4.26e-03  4.97e-02  2.01e-01  0.700   0.2
                               ***Turning on AO-DIIS***
    3    -303.8170633249975481    -8.73e-02  1.67e-03  2.15e-02  1.12e-01  0.700   0.2
    4    -303.8697964857154261    -5.27e-02  1.01e-03  1.37e-02  7.63e-02  0.700   0.1
    5    -303.9046459167090006    -3.48e-02  2.33e-03  3.27e-02  5.43e-02  0.000   0.1
    6    -303.9823504386035324    -7.77e-02  1.61e-04  1.79e-03  3.39e-03  0.000   0.1
                              *** Initializing SOSCF ***
---------------------------------------S-O-S-C-F--------------------------------------
Iteration    Energy (Eh)           Delta-E    RMSDP     MaxDP     MaxGrad    Time(sec)
--------------------------------------------------------------------------------------
    7    -303.9824116155439810    -6.12e-05  1.01e-04  7.62e-04  1.14e-03     0.1
               *** Restarting incremental Fock matrix formation ***
    8    -303.9824235240657231    -1.19e-05  4.58e-05  4.81e-04  1.89e-04     0.1
    9    -303.9824247877754146    -1.26e-06  2.89e-05  2.26e-04  8.92e-05     0.1
   10    -303.9824250230053053    -2.35e-07  3.81e-06  4.14e-05  3.47e-05     0.1
   11    -303.9824250360288715    -1.30e-08  8.76e-07  9.29e-06  5.41e-06     0.1
   12    -303.9824250364193858    -3.91e-10  1.75e-07  1.88e-06  9.27e-07     0.1
                 **** Energy Check signals convergence ****

               *****************************************************
               *                     SUCCESS                       *
               *           SCF CONVERGED AFTER  12 CYCLES          *
               *****************************************************

             **** ENERGY FILE WAS UPDATED (frag.en.tmp) ****

----------------
TOTAL SCF ENERGY
----------------

Total Energy       :       -303.98242503641939 Eh           -8271.78231 eV

Components:
Nuclear Repulsion  :        114.54840548033461 Eh            3117.02058 eV
Electronic Energy  :       -418.53083051675401 Eh          -11388.80289 eV
One Electron Energy:       -646.76620313418960 Eh          -17599.40312 eV
Two Electron Energy:        228.23537261743559 Eh            6210.60023 eV

Virial components:
Potential Energy   :       -609.49821678670639 Eh          -16585.28966 eV
Kinetic Energy     :        305.51579175028701 Eh            8313.50734 eV
Virial Ratio       :          1.99498105579066

---------------
SCF CONVERGENCE
---------------

  Last Energy change         ...    3.9051e-10  Tolerance :   1.0000e-08
  Last MAX-Density change    ...    1.8800e-06  Tolerance :   1.0000e-07
  Last RMS-Density change    ...    1.7546e-07  Tolerance :   5.0000e-09
  Last DIIS Error            ...    1.1448e-03  Tolerance :   5.0000e-07
  Last Orbital Gradient      ...    9.2741e-07  Tolerance :   1.0000e-05
  Last Orbital Rotation      ...    1.0075e-06  Tolerance :   1.0000e-05


----------------
ORBITAL ENERGIES
----------------

  NO   OCC          E(Eh)            E(eV) 
   0   2.0000     -20.557845      -559.4074 
   1   2.0000     -20.545330      -559.0669 
   2   2.0000     -20.529605      -558.6390 
   3   2.0000     -20.526662      -558.5589 
   4   2.0000      -1.410863       -38.3915 
   5   2.0000      -1.398624       -38.0585 
   6   2.0000      -1.383063       -37.6351 
   7   2.0000      -1.379985       -37.5513 
   8   2.0000      -0.773787       -21.0558 
   9   2.0000      -0.761277       -20.7154 
  10   2.0000      -0.746806       -20.3216 
  11   2.0000      -0.741859       -20.1870 
  12   2.0000      -0.610067       -16.6008 
  13   2.0000      -0.595773       -16.2118 
  14   2.0000      -0.580801       -15.8044 
  15   2.0000      -0.577957       -15.7270 
  16   2.0000      -0.524826       -14.2813 
  17   2.0000      -0.512306       -13.9406 
  18   2.0000      -0.496848       -13.5199 
  19   2.0000      -0.493444       -13.4273 
  20   0.0000       0.181928         4.9505 
  21   0.0000       0.210799         5.7361 
  22   0.0000       0.251382         6.8404 
  23   0.0000       0.274190         7.4611 
  24   0.0000       0.305590         8.3155 
  25   0.0000       0.316607         8.6153 
  26   0.0000       0.337952         9.1961 
  27   0.0000       0.417096        11.3498 
  28   0.0000       1.034594        28.1527 
  29   0.0000       1.043080        28.3837 
  30   0.0000       1.049514        28.5587 
*Only the first 10 virtual orbitals were printed.

                    ********************************
                    * MULLIKEN POPULATION ANALYSIS *
                    ********************************

-----------------------
MULLIKEN ATOMIC CHARGES
-----------------------
   0 O :   -0.894349
   1 H :    0.445656
   2 H :    0.451144
   3 O :   -0.891679
   4 H :    0.446736
   5 H :    0.446105
   6 O :   -0.893011
   7 H :    0.444750
   8 H :    0.446874
   9 O :   -0.895294
  10 H :    0.439557
  11 H :    0.453510
Sum of atomic charges:    0.0000000

--------------------------------
MULLIKEN REDUCED ORBITAL CHARGES
--------------------------------
  0 O s       :     3.844839  s :     3.844839
      pz      :     1.849037  p :     5.016529
      px      :     1.802705
      py      :     1.364787
      dz2     :     0.003132  d :     0.032981
      dxz     :     0.006898
      dyz     :     0.008432
      dx2y2   :     0.000830
      dxy     :     0.013689

  1 H s       :     0.554344  s :     0.554344

  2 H s       :     0.548856  s :     0.548856

  3 O s       :     3.847868  s :     3.847868
      pz      :     1.911703  p :     5.010268
      px      :     1.419514
      py      :     1.679051
      dz2     :     0.003549  d :     0.033543
      dxz     :     0.006194
      dyz     :     0.005698
      dx2y2   :     0.009909
      dxy     :     0.008195

  4 H s       :     0.553264  s :     0.553264

  5 H s       :     0.553895  s :     0.553895

  6 O s       :     3.847508  s :     3.847508
      pz      :     1.446515  p :     5.012215
      px      :     1.735568
      py      :     1.830132
      dz2     :     0.015170  d :     0.033288
      dxz     :     0.004316
      dyz     :     0.001216
      dx2y2   :     0.002632
      dxy     :     0.009954

  7 H s       :     0.555250  s :     0.555250

  8 H s       :     0.553126  s :     0.553126

  9 O s       :     3.847345  s :     3.847345
      pz      :     1.714939  p :     5.014629
      px      :     1.715108
      py      :     1.584582
      dz2     :     0.004583  d :     0.033320
      dxz     :     0.009493
      dyz     :     0.002868
      dx2y2   :     0.001699
      dxy     :     0.014678

 10 H s       :     0.560443  s :     0.560443

 11 H s       :     0.546490  s :     0.546490



                     *******************************
                     * LOEWDIN POPULATION ANALYSIS *
                     *******************************

----------------------
LOEWDIN ATOMIC CHARGES
----------------------
   0 O :   -0.628879
   1 H :    0.313651
   2 H :    0.317184
   3 O :   -0.626302
   4 H :    0.312547
   5 H :    0.314579
   6 O :   -0.625945
   7 H :    0.310123
   8 H :    0.314867
   9 O :   -0.628300
  10 H :    0.310777
  11 H :    0.315697

-------------------------------
LOEWDIN REDUCED ORBITAL CHARGES
-------------------------------
  0 O s       :     3.554020  s :     3.554020
      pz      :     1.855723  p :     5.033286
      px      :     1.811725
      py      :     1.365839
      dz2     :     0.003718  d :     0.041573
      dxz     :     0.007311
      dyz     :     0.011107
      dx2y2   :     0.001643
      dxy     :     0.017793

  1 H s       :     0.686349  s :     0.686349

  2 H s       :     0.682816  s :     0.682816

  3 O s       :     3.555495  s :     3.555495
      pz      :     1.916353  p :     5.028542
      px      :     1.423609
      py      :     1.688580
      dz2     :     0.004194  d :     0.042265
      dxz     :     0.007850
      dyz     :     0.006124
      dx2y2   :     0.013118
      dxy     :     0.010979

  4 H s       :     0.687453  s :     0.687453

  5 H s       :     0.685421  s :     0.685421

  6 O s       :     3.553935  s :     3.553935
      pz      :     1.453204  p :     5.029997
      px      :     1.743301
      py      :     1.833491
      dz2     :     0.020172  d :     0.042012
      dxz     :     0.005470
      dyz     :     0.001671
      dx2y2   :     0.002724
      dxy     :     0.011975

  7 H s       :     0.689877  s :     0.689877

  8 H s       :     0.685133  s :     0.685133

  9 O s       :     3.554473  s :     3.554473
      pz      :     1.719243  p :     5.031850
      px      :     1.727777
      py      :     1.584830
      dz2     :     0.005557  d :     0.041977
      dxz     :     0.011542
      dyz     :     0.004422
      dx2y2   :     0.001770
      dxy     :     0.018687

 10 H s       :     0.689223  s :     0.689223

 11 H s       :     0.684303  s :     0.684303



                      *****************************
                      * MAYER POPULATION ANALYSIS *
                      *****************************

  NA   - Mulliken gross atomic population
  ZA   - Total nuclear charge
  QA   - Mulliken gross atomic charge
  VA   - Mayer's total valence
  BVA  - Mayer's bonded valence
  FA   - Mayer's free valence

  ATOM       NA         ZA         QA         VA         BVA        FA
  0 O      8.8943     8.0000    -0.8943     1.5524     1.5524    -0.0000
  1 H      0.5543     1.0000     0.4457     0.7661     0.7661     0.0000
  2 H      0.5489     1.0000     0.4511     0.7623     0.7623    -0.0000
  3 O      8.8917     8.0000    -0.8917     1.5518     1.5518     0.0000
  4 H      0.5533     1.0000     0.4467     0.7658     0.7658    -0.0000
  5 H      0.5539     1.0000     0.4461     0.7659     0.7659     0.0000
  6 O      8.8930     8.0000    -0.8930     1.5489     1.5489    -0.0000
  7 H      0.5553     1.0000     0.4447     0.7683     0.7683     0.0000
  8 H      0.5531     1.0000     0.4469     0.7665     0.7665     0.0000
  9 O      8.8953     8.0000    -0.8953     1.5471     1.5471    -0.0000
 10 H      0.5604     1.0000     0.4396     0.7708     0.7708     0.0000
 11 H      0.5465     1.0000     0.4535     0.7629     0.7629     0.0000

  Mayer bond orders larger than 0.100000
B(  0-O ,  1-H ) :   0.7749 B(  0-O ,  2-H ) :   0.7715 B(  3-O ,  4-H ) :   0.7715 
B(  3-O ,  5-H ) :   0.7754 B(  6-O ,  7-H ) :   0.7713 B(  6-O ,  8-H ) :   0.7746 
B(  9-O , 10-H ) :   0.7802 B(  9-O , 11-H ) :   0.7650 

-------
TIMINGS
-------

Total SCF time: 0 days 0 hours 0 min 1 sec 

Total time                  ....       1.728 sec
Sum of individual times     ....       1.646 sec  ( 95.2%)

SCF preparation             ....       0.073 sec  (  4.2%)
Fock matrix formation       ....       1.248 sec  ( 72.2%)
  Startup                   ....       0.021 sec  (  1.7% of F)
  Coulomb+Exchange Fock     ....       1.142 sec  ( 91.5% of F)
Diagonalization             ....       0.000 sec  (  0.0%)
Density matrix formation    ....       0.084 sec  (  4.8%)
Total Energy calculation    ....       0.037 sec  (  2.1%)
Population analysis         ....       0.020 sec  (  1.1%)
Orbital Transformation      ....       0.021 sec  (  1.2%)
Orbital Orthonormalization  ....       0.000 sec  (  0.0%)
DIIS solution               ....       0.110 sec  (  6.4%)
SOSCF solution              ....       0.055 sec  (  3.2%)
Finished LeanSCF after   1.8 sec

Maximum memory used throughout the entire LEANSCF-calculation: 8.2 MB

-------------------------   --------------------
FINAL SINGLE POINT ENERGY      -303.982425036419
-------------------------   --------------------

------------------------------------------------------------------------------
                         ORCA SCF GRADIENT CALCULATION
------------------------------------------------------------------------------

Nuc. rep. gradient        (SHARK) ... done (  0.0 sec)
HCore & Overlap gradient  (SHARK) ... done (  0.0 sec)
Two-electron gradient     (SHARK) ... done (  0.4 sec)

------------------
CARTESIAN GRADIENT
------------------

   1   O   :    0.097635389    0.015316490    0.078964723
   2   H   :   -0.048555278    0.085827449   -0.055759864
   3   H   :   -0.048445478   -0.100511288   -0.022475953
   4   O   :   -0.042967279   -0.097160414    0.064920183
   5   H   :   -0.065101793    0.088065996   -0.030389002
   6   H   :    0.107604886    0.010165237   -0.034785557
   7   O   :   -0.089676185    0.056362806    0.067208315
   8   H   :    0.008518199    0.009351424   -0.111720085
   9   H   :    0.080973468   -0.066137825    0.044172953
  10   O   :    0.115665104    0.020428116    0.043553404
  11   H   :   -0.048189774    0.064206275   -0.078770400
  12   H   :   -0.067461259   -0.085914265    0.035081282

Difference to translation invariance:
           :   -0.0000000000   -0.0000000001   -0.0000000000

Difference to rotation invariance:
           :   -0.0000002394   -0.0000000718    0.0000001167

Norm of the Cartesian gradient     ...    0.4072654393
RMS gradient                       ...    0.0678775732
MAX gradient                       ...    0.1156651043

-------
TIMINGS
-------

Total SCF gradient time     ....        0.463 sec

Densities                   ....       0.000 sec  (  0.0%)
One electron gradient       ....       0.042 sec  (  9.1%)
Two electron gradient       ....       0.420 sec  ( 90.9%)

Maximum memory used throughout the entire SCFGRAD-calculation: 14.0 MB

------------------------------------------------------------------------------
                              ORCA PROPERTY CALCULATIONS
------------------------------------------------------------------------------

GBWName                                 ... frag.gbw
Number of atoms                         ...     12
Number of basis functions               ...     72
Max core memory                         ...   1024 MB

Electric properties:
Dipole moment                           ... YES
Quadrupole moment                       ...  NO
Static polarizability (Dipole/Dipole)   ...  NO
Static polarizability (Dipole/Quad.)    ...  NO
Static polarizability (Quad./Quad.)     ...  NO
Static polarizability (Velocity)        ...  NO

Atomic electric properties:
Dipole moment                           ...  NO
Quadrupole moment                       ...  NO
Static polarizability                   ...  NO

Choice of electric origin               ... Center of mass
Position of electric origin             ...    41.828930    88.864646    75.114700

General magnetic properties:
Magnetizability                         ...  NO

EPR properties:
g-Tensor (aka g-matrix)                 ...  NO
Zero-Field splitting spin-orbit         ...  NO
Zero-field splitting spin-spin          ...  NO
Hyperfine couplings                     ...  NO (   0 nuclei)
Quadrupole couplings                    ...  NO (   0 nuclei)
Contact density                         ...  NO (   0 nuclei)

NMR properties:
Chemical shifts                         ...  NO (   0 nuclei)
Spin-rotation constants                 ...  NO (   0 nuclei)
Spin-spin couplings                     ...  NO (   0 nuclei,    0 pairs)

Choice of magnetic origin               ... GIAO
Position of magnetic origin             ...     0.000000     0.000000     0.000000

Properties with geometric perturbations:
SCF Hessian                             ...  NO
IR spectrum                             ...  NO
VCD spectrum                            ...  NO
X-ray spectroscopy properties:
SCF XES/XAS/RIXS spectra                ...  NO


-------------
DIPOLE MOMENT
-------------

Method             : SCF
Type of density    : Electron Density
Multiplicity       :   1
Irrep              :   0
Energy             :  -303.9824250364193858 Eh
Relativity type    : 
Basis              : AO
                                X                 Y                 Z
Electronic contribution:     -0.019867299       0.048372083      -0.092711834
Nuclear contribution   :      0.573837747      -0.070933773       1.820197917
                        -----------------------------------------
Total Dipole Moment    :      0.553970448      -0.022561691       1.727486083
                        -----------------------------------------
Magnitude (a.u.)       :      1.814276840
Magnitude (Debye)      :      4.611525243



--------------------
Rotational spectrum 
--------------------
 
Rotational constants in cm-1:             0.075561             0.045752             0.033859 
Rotational constants in MHz :          2265.254266          1371.620281          1015.053980 

Dipole components along the rotational axes: 
x,y,z [a.u.] :    -0.759603    -1.580566     0.465203 
x,y,z [Debye]:    -1.930757    -4.017480     1.182453 

 

Dipole moment calculation done in   0.0 sec 

Maximum memory used throughout the entire PROP-calculation: 2.7 MB

--------------------------------
SUGGESTED CITATIONS FOR THIS RUN
--------------------------------

Below you find a list of papers that are relevant to this ORCA run
We neither can nor want to force you to cite these papers, but we appreciate if you do
You receive ORCA, which is the product of decades of hard work by many enthusiastic individuals, for free
The only thing we kindly ask in return is that you cite our papers,
We deeply appreciate it, if you show your appreciation for ORCA by not just citing the generic ORCA reference.

Please note that relegating all ORCA citations to the supporting information does *not* help us.
SI sections are not indexed - citations you put there will not count into any citation statistics
But we need these citations in order to attract the funding resources that allow us to do what we are doing

Therefore, if you are a happy ORCA user, please consider citing a few of the papers listed below in the main body of your paper

In addition to the list printed below, the program has created the file frag.bibtex that contains the list in bibtex format
You can import this file easily into all common literature databanks and citation aid programs


List of essential papers. We consider these as the minimum necessary citations

  1. Neese,F.
     Software update: the ORCA program system, version 5.0
     WIRES Comput. Molec. Sci., 2022 12(1)e1606
     doi.org/10.1002/wcms.1606

List of papers to cite with high priority. The work reported in these papers was absolutely
necessary for this run to complete.
Our perspective: the developers of density functionals and basis sets usually get cited in chemistry papers
Good! But without the algorithms to do something with them, the functionals or basis sets would not do anything.
Hence, in our opinion, the algorithm design and method developments papers are equally worthy of getting cited

  1. Neese,F.
     The SHARK Integral Generation and Digestion System
     J. Comp. Chem., 2022  1-16
     doi.org/10.1002/jcc.26942

List of suggested additional citations. These are papers that are important in the 'surrounding' of 
of this run, or papers that preceded the highly important papers. If you like your results we are grateful for a citation.

  1. Neese,F.
     The ORCA program system
     WIRES Comput. Molec. Sci., 2012 2(1)73-78
     doi.org/10.1002/wcms.81
  2. Neese,F.
     Software update: the ORCA program system, version 4.0
     WIRES Comput. Molec. Sci., 2018 8(1)1-6
     doi.org/10.1002/wcms.1327
  3. Neese,F.; Wennmohs,F.; Becker,U.; Riplinger,C.
     The ORCA quantum chemistry program package
     J. Chem. Phys., 2020 152 Art. No. L224108
     doi.org/10.1063/5.0004608

List of optional additional citations

  1. Neese,F.
     Approximate second-order SCF convergence for spin unrestricted wavefunctions
     Chem. Phys. Lett., 2000 325(1-3)93-98
     doi.org/10.1016/s0009-2614(00)00662-x

Timings for individual modules:

Sum of individual times          ...        3.100 sec (=   0.052 min)
Startup calculation              ...        0.483 sec (=   0.008 min)  15.6 %
SCF iterations                   ...        2.032 sec (=   0.034 min)  65.6 %
Property calculations            ...        0.059 sec (=   0.001 min)   1.9 %
SCF Gradient evaluation          ...        0.526 sec (=   0.009 min)  17.0 %
                             ****ORCA TERMINATED NORMALLY****
TOTAL RUN TIME: 0 days 0 hours 0 minutes 3 seconds 357 msec
