
                                 *****************
                                 * O   R   C   A *
                                 *****************

                                            #,                                       
                                            ###                                      
                                            ####                                     
                                            #####                                    
                                            ######                                   
                                           ########,                                 
                                     ,,################,,,,,                         
                               ,,#################################,,                 
                          ,,##########################################,,             
                       ,#########################################, ''#####,          
                    ,#############################################,,   '####,        
                  ,##################################################,,,,####,       
                ,###########''''           ''''###############################       
              ,#####''   ,,,,##########,,,,          '''####'''          '####       
            ,##' ,,,,###########################,,,                        '##       
           ' ,,###''''                  '''############,,,                           
         ,,##''                                '''############,,,,        ,,,,,,###''
      ,#''                                            '''#######################'''  
     '                                                          ''''####''''         
             ,#######,   #######,   ,#######,      ##                                
            ,#'     '#,  ##    ##  ,#'     '#,    #''#        ,####,   ,####,        
            ##       ##  ##   ,#'  ##            #'  '#       #'       #'  '#        
            ##       ##  #######   ##           ,######,      #####,   #    #        
            '#,     ,#'  ##    ##  '#,     ,#' ,#      #,     #,   #   #,  ,#        
             '#######'   ##     ##  '#######'  #'      '#     '####' # '####'        



                #########################################################
                #                        -***-                          #
                #          Department of theory and spectroscopy        #
                #                                                       #
                #                      Frank Neese                      #
                #                                                       #
                #     Directorship, Architecture, Infrastructure        #
                #                    SHARK, DRIVERS                     #
                #        Core code/Algorithms in most modules           #
                #                                                       #
                #        Max Planck Institute fuer Kohlenforschung      #
                #                Kaiser Wilhelm Platz 1                 #
                #                 D-45470 Muelheim/Ruhr                 #
                #                      Germany                          #
                #                                                       #
                #                  All rights reserved                  #
                #                        -***-                          #
                #########################################################


                         Program Version 6.0.1  -  RELEASE   -


 With contributions from (in alphabetic order):
[Max-Planck-Institut fuer Kohlenforschung]                               
  Daniel Aravena         : Magnetic Suceptibility                        
  Michael Atanasov       : Ab Initio Ligand Field Theory (pilot matlab implementation)
  Alexander A. Auer      : GIAO ZORA, VPT2 properties, NMR spectrum      
  Ute Becker             : All parallelization in ORCA, NUMFREQ, NUMCALC 
  Giovanni Bistoni       : ED, misc. LED, open-shell LED, HFLD           
  Martin Brehm           : Molecular dynamics                            
  Dmytro Bykov           : pre 5.0 version of the SCF Hessian            
  Marcos Casanova-Páez   : Triplet and SCS-CIS(D). UHF-(DLPNO)-IP/EA/STEOM-CCSD. UHF-CVS-IP/STEOM-CCSD   
  Vijay G. Chilkuri      : MRCI spin determinant printing, contributions to CSF-ICE 
  Pauline Colinet        : FMM embedding                                 
  Dipayan Datta          : RHF DLPNO-CCSD density                        
  Achintya Kumar Dutta   : EOM-CC, STEOM-CC                              
  Nicolas Foglia         : Exact transition moments, OPA infrastructure, MCD improvements    
  Dmitry Ganyushin       : Spin-Orbit,Spin-Spin,Magnetic field MRCI      
  Miquel Garcia-Rates    : C-PCM and meta-GGA Hessian, CCSD/C-PCM, Gaussian charge scheme 
  Tiago L. C. Gouveia    : GS-ROHF, GS-ROCIS                             
  Yang Guo               : DLPNO-NEVPT2, F12-NEVPT2, CIM, IAO-localization        
  Andreas Hansen         : Spin unrestricted coupled pair/coupled cluster methods 
  Ingolf Harden          : AUTO-CI MPn and infrastructure                
  Benjamin Helmich-Paris : MC-RPA, TRAH-(SCF,CASSCF), AVAS, COSX integrals, SCF dyn. polar. 
  Lee Huntington         : MR-EOM, pCC                                   
  Robert Izsak           : Overlap fitted RIJCOSX, COSX-SCS-MP3, EOM     
  Riya Kayal             : Wick's Theorem for AUTO-CI, AUTO-CI UHF-CCSDT 
  Emily Kempfer          : AUTO-CI, RHF CISDT and CCSDT                  
  Christian Kollmar      : KDIIS, OOCD, Brueckner-CCSD(T), CCSD density, CASPT2, CASPT2-K, improved NEVPT2 
  Axel Koslowski         : Symmetry handling                             
  Simone Kossmann        : meta-GGA functionals, TD-DFT gradient, OOMP2, (MP2 Hessian; deprecated post 5.0) 
  Lucas Lang             : DCDCAS                                        
  Marvin Lechner         : AUTO-CI (C++ implementation), FIC-MRCC        
  Spencer Leger          : CASSCF response                               
  Dagmar Lenk            : GEPOL surface, SMD, ORCA-2-JSON               
  Dimitrios Liakos       : Extrapolation schemes; Compound Job, initial MDCI parallelization 
  Dimitrios Manganas     : Further ROCIS development; embedding schemes. LFT, Crystal Embedding 
  Dimitrios Pantazis     : SARC Basis sets                               
  Anastasios Papadopoulos: AUTO-CI, single reference methods and gradients 
  Taras Petrenko         : pre 6.0 DFT Hessian and TD-DFT gradient, (ASA, deprecated), ECA, 1-Electron XAS/XES, NRVS 
  Peter Pinski           : DLPNO-MP2, DLPNO-MP2 Gradient                 
  Christoph Reimann      : Effective Core Potentials                     
  Marius Retegan         : Local ZFS, SOC                                
  Christoph Riplinger    : Optimizer, TS searches, QM/MM, DLPNO-CCSD(T), (RO)-DLPNO pert. Triples 
  Michael Roemelt        : Original ROCIS implementation                 
  Masaaki Saitow         : Open-shell DLPNO-CCSD energy and density      
  Barbara Sandhoefer     : DKH picture change effects                    
  Kantharuban Sivalingam : CASSCF convergence/infrastructure, NEVPT2 and variants, FIC-MRCI 
  Bernardo de Souza      : ESD, SOC TD-DFT                               
  Georgi L. Stoychev     : AutoAux, RI-MP2 NMR, DLPNO-MP2 response, X2C  
  Van Anh Tran           : RI-MP2 g-tensors                              
  Willem Van den Heuvel  : Paramagnetic NMR                              
  Zikuan Wang            : NOTCH, Electric field optimization            
  Frank Wennmohs         : Technical directorship and infrastructure     
  Hang Xu                : AUTO-CI-Response properties                   
                                                                         
[FACCTs GmbH]                                                            
  Markus Bursch, Miquel Garcia-Rates, Christoph Riplinger, Bernardo de Souza, Georgi L. Stoychev 
                                                                 
  APM, Basis sets (HGBS, AHGBS, def-TZVP (Ac-Lr), def2-XVPD (La-Lu)), CI-OPT, improved COSX, DLPNO-Multilevel,           
  DOCKER, DRACO, updates on ESD, GOAT, IRC, LR-CPCM, MBIS, meta-GGA TD-DFT gradient, ML-optimized integration grids, 
  MM, NACMEs, nearIR, NEB, NEB-TS, NL-DFT gradient (VV10), 2- and 3-layer-ONIOM, interface openCOSMO-RS, QMMM,   
  Crystal-QMMM, SF, symmetry and pop. for TD-DFT, r2SCAN hybrids, SOLVATOR                                   
                                                                         
[Other institutions]                                                     
  V. Asgeirsson          : NEB                                           
  Christoph Bannwarth    : sTDA-DFT, sTD-DFT, PBEh-3c, B97-3c, D3        
  Sebastian Ehlert       : rSCAN, r2SCAN, r2SCAN-3c, D4, dhf basis sets  
  Marvin Friede          : D4 for Fr, Ra, Ac-Lr                          
  Lars Goerigk           : TD-DFT with DH, B97 family of functionals     
  Stefan Grimme          : VdW corrections, initial TS optimization, DFT functionals, gCP, sTDA/sTD-DF 
  Waldemar Hujo          : DFT-NL                                        
  H. Jonsson             : NEB                                           
  Holger Kruse           : gCP                                           
  Marcel Mueller         : wB97X-3c, vDZP basis set                      
  Hagen Neugebauer       : wr2SCAN                                       
  Tobias Risthaus        : range-separated hybrid DFT                    
  Lukas Wittmann         : regularized MP2, r2SCAN double-hybrids, wr2SCAN        
                                                                         
We gratefully acknowledge several colleagues who have allowed us to      
interface, adapt or use parts of their codes:                            
  Ed Valeev, F. Pavosevic, A. Kumar             : LibInt (2-el integral package), F12 methods 
  Garnet Chan, S. Sharma, J. Yang, R. Olivares  : DMRG                   
  Ulf Ekstrom                                   : XCFun DFT Library      
  Mihaly Kallay                                 : mrcc  (arbitrary order and MRCC methods)
  Frank Weinhold                                : gennbo (NPA and NBO analysis)           
  Simon Mueller                                 : openCOSMO-RS                            
  Christopher J. Cramer and Donald G. Truhlar   : smd solvation model                     
  S Lehtola, MJT Oliveira, MAL Marques          : LibXC Library                           
  Liviu Ungur et al                             : ANISO software                          


 Your calculation uses the libint2 library for the computation of 2-el integrals
 For citations please refer to: http://libint.valeyev.net

 Your ORCA version has been built with support for libXC version: 6.2.2
 For citations please refer to: https://libxc.gitlab.io

 This ORCA versions uses:
   CBLAS   interface :  Fast vector & matrix operations
   LAPACKE interface :  Fast linear algebra routines
   SCALAPACK package :  Parallel linear algebra routines
   Shared memory     :  Shared parallel matrices
   BLAS/LAPACK       :  OpenBLAS 0.3.27  USE64BITINT DYNAMIC_ARCH NO_AFFINITY SkylakeX SINGLE_THREADED
        Core in use  :  SkylakeX
   Copyright (c) 2011-2014, The OpenBLAS Project


================================================================================

----- Orbital basis set information -----
Your calculation utilizes the basis: 6-31G*
   H-He, Li-Ne : W. J. Hehre, R. Ditchfield and J.A. Pople, J. Chem. Phys. 56, 2257 (1972).
                 Note: He and Ne are unpublished basis sets taken from the Gaussian program.
                 Note: Li and B from J. D. Dill and J. A. Pople, J. Chem. Phys. 62, 2921 (1975).
   Na - Ar     : M. M. Francl, W. J. Pietro, W. J. Hehre, J. S. Binkley, M. S. Gordon, 
                 D. J. DeFrees and J. A. Pople, J. Chem. Phys. 77, 3654 (1982).
   K - Zn      : V. A. Rassolov, J. A. Pople, M. A. Ratner, and T. L. Windus, J. Chem. Phys. 109, 1223 (1998).

================================================================================
                                        WARNINGS
                       Please study these warnings very carefully!
================================================================================


================================================================================
                                       INPUT FILE
================================================================================
NAME = frag.inp
|  1> !HF 6-31G* EnGrad
|  2> %pal nprocs 1 end
|  3> *xyz 0 1
|  4> O 21.31548000 47.19077000 40.87238000
|  5> H 22.11097000 46.98487000 41.16553000
|  6> H 20.96265000 46.41737000 40.67613000
|  7> O 20.35232000 49.63574000 40.01023000
|  8> H 20.79050000 48.92392000 40.26012000
|  9> H 19.54326000 49.49202000 40.30334000
| 10> O 19.10373000 45.58535000 40.48424000
| 11> H 18.38270000 45.25544000 40.12036000
| 12> H 18.82331000 45.89664000 41.24949000
| 13> O 22.25294000 44.28778000 39.87163000
| 14> H 22.68414000 43.83080000 40.47691000
| 15> H 22.81575000 44.91633000 39.64956000
| 16> *
| 17> 
| 18>                          ****END OF INPUT****
================================================================================

                     *******************************
                     * Energy+Gradient Calculation *
                     *******************************

---------------------------------
CARTESIAN COORDINATES (ANGSTROEM)
---------------------------------
  O     21.315480   47.190770   40.872380
  H     22.110970   46.984870   41.165530
  H     20.962650   46.417370   40.676130
  O     20.352320   49.635740   40.010230
  H     20.790500   48.923920   40.260120
  H     19.543260   49.492020   40.303340
  O     19.103730   45.585350   40.484240
  H     18.382700   45.255440   40.120360
  H     18.823310   45.896640   41.249490
  O     22.252940   44.287780   39.871630
  H     22.684140   43.830800   40.476910
  H     22.815750   44.916330   39.649560

----------------------------
CARTESIAN COORDINATES (A.U.)
----------------------------
  NO LB      ZA    FRAG     MASS         X           Y           Z
   0 O     8.0000    0    15.999   40.280420   89.177631   77.237605
   1 H     1.0000    0     1.008   41.783678   88.788537   77.791578
   2 H     1.0000    0     1.008   39.613668   87.716117   76.866746
   3 O     8.0000    0    15.999   38.460311   93.797955   75.608377
   4 H     1.0000    0     1.008   39.288351   92.452810   76.080601
   5 H     1.0000    0     1.008   36.931409   93.526364   76.162275
   6 O     8.0000    0    15.999   36.100818   86.143827   76.504126
   7 H     1.0000    0     1.008   34.738269   85.520388   75.816493
   8 H     1.0000    0     1.008   35.570901   86.732080   77.950239
   9 O     8.0000    0    15.999   42.051962   83.691775   75.346461
  10 H     1.0000    0     1.008   42.866812   82.828208   76.490275
  11 H     1.0000    0     1.008   43.115519   84.879563   74.926810

--------------------------------
INTERNAL COORDINATES (ANGSTROEM)
--------------------------------
 O      0   0   0     0.000000000000     0.00000000     0.00000000
 H      1   0   0     0.872431127712     0.00000000     0.00000000
 H      1   2   0     0.872439471482   103.59872274     0.00000000
 O      1   2   3     2.765656903703   129.11896367   197.01747687
 H      4   1   2     0.872430190273     9.76862677    18.30230780
 H      4   1   2     0.872437386922    94.16296827   213.12954087
 O      3   1   2     2.045644792944   138.51760024   155.95761940
 H      7   3   1     0.872429666735   160.72623553   104.87007073
 H      7   3   1     0.872435901944    93.70851241   310.81868034
 O      3   1   2     2.616719721751   126.24180712   329.77871731
 H     10   3   1     0.872426523439   117.17456234    76.98324549
 H     10   3   1     0.872436406565    79.04835924   337.20315741

---------------------------
INTERNAL COORDINATES (A.U.)
---------------------------
 O      0   0   0     0.000000000000     0.00000000     0.00000000
 H      1   0   0     1.648655902083     0.00000000     0.00000000
 H      1   2   0     1.648671669524   103.59872274     0.00000000
 O      1   2   3     5.226334128387   129.11896367   197.01747687
 H      4   1   2     1.648654130581     9.76862677    18.30230780
 H      4   1   2     1.648667730277    94.16296827   213.12954087
 O      3   1   2     3.865708425947   138.51760024   155.95761940
 H      7   3   1     1.648653141238   160.72623553   104.87007073
 H      7   3   1     1.648664924074    93.70851241   310.81868034
 O      3   1   2     4.944883643340   126.24180712   329.77871731
 H     10   3   1     1.648647201269   117.17456234    76.98324549
 H     10   3   1     1.648665877670    79.04835924   337.20315741

---------------------
BASIS SET INFORMATION
---------------------
There are 2 groups of distinct atoms

 Group   1 Type O   : 10s4p1d contracted to 3s2p1d pattern {631/31/1}
 Group   2 Type H   : 4s contracted to 2s pattern {31}

Atom   0O    basis set group =>   1
Atom   1H    basis set group =>   2
Atom   2H    basis set group =>   2
Atom   3O    basis set group =>   1
Atom   4H    basis set group =>   2
Atom   5H    basis set group =>   2
Atom   6O    basis set group =>   1
Atom   7H    basis set group =>   2
Atom   8H    basis set group =>   2
Atom   9O    basis set group =>   1
Atom  10H    basis set group =>   2
Atom  11H    basis set group =>   2
------------------------------------------------------------------------------
                             ORCA STARTUP CALCULATIONS
------------------------------------------------------------------------------
------------------------------------------------------------------------------
                   ___                                                        
                  /   \      - P O W E R E D   B Y -                         
                 /     \                                                     
                 |  |  |   _    _      __       _____    __    __             
                 |  |  |  | |  | |    /  \     |  _  \  |  |  /  |          
                  \  \/   | |  | |   /    \    | | | |  |  | /  /          
                 / \  \   | |__| |  /  /\  \   | |_| |  |  |/  /          
                |  |  |   |  __  | /  /__\  \  |    /   |      \           
                |  |  |   | |  | | |   __   |  |    \   |  |\   \          
                \     /   | |  | | |  |  |  |  | |\  \  |  | \   \       
                 \___/    |_|  |_| |__|  |__|  |_| \__\ |__|  \__/        
                                                                              
                      - O R C A' S   B I G   F R I E N D -                    
                                      &                                       
                       - I N T E G R A L  F E E D E R -                       
                                                                              
 v1 FN, 2020, v2 2021, v3 2022-2024                                           
------------------------------------------------------------------------------


----------------------
SHARK INTEGRAL PACKAGE
----------------------

Number of atoms                             ...     12
Number of basis functions                   ...     72
Number of shells                            ...     40
Maximum angular momentum                    ...      2
Integral batch strategy                     ... SHARK/LIBINT Hybrid
RI-J (if used) integral strategy            ... SPLIT-RIJ (Revised 2003 algorithm where possible)
Printlevel                                  ...      1
Contraction scheme used                     ... SEGMENTED contraction
Prescreening option                         ... SCHWARTZ
   Thresh                                   ... 2.500e-11
   Tcut                                     ... 2.500e-12
   Tpresel                                  ... 2.500e-12 
Coulomb Range Separation                    ... NOT USED
Exchange Range Separation                   ... NOT USED
Multipole approximations                    ... NOT USED
Finite Nucleus Model                        ... NOT USED
CABS basis                                  ... NOT available
Auxiliary Coulomb fitting basis             ... NOT available
Auxiliary J/K fitting basis                 ... NOT available
Auxiliary Correlation fitting basis         ... NOT available
Auxiliary 'external' fitting basis          ... NOT available

Checking pre-screening integrals            ... done (  0.0 sec) Dimension = 40
Check shell pair data                       ... done (  0.0 sec)
Shell pair information
Shell pair cut-off parameter TPreSel        ...   2.5e-12
Total number of shell pairs                 ...       820
Shell pairs after pre-screening             ...       743
Total number of primitive shell pairs       ...      4386
Primitive shell pairs kept                  ...      2599
          la=0 lb=0:    365 shell pairs
          la=1 lb=0:    205 shell pairs
          la=1 lb=1:     34 shell pairs
          la=2 lb=0:    100 shell pairs
          la=2 lb=1:     30 shell pairs
          la=2 lb=2:      9 shell pairs

Calculating one electron integrals          ... done (  0.0 sec)
Calculating Nuclear repulsion               ... done (  0.0 sec) ENN=    131.823151385128 Eh

Diagonalization of the overlap matrix:
Smallest eigenvalue                        ... 2.970e-02
Time for diagonalization                   ...    0.001 sec
Threshold for overlap eigenvalues          ... 1.000e-07
Number of eigenvalues below threshold      ... 0
Time for construction of square roots      ...    0.005 sec
Total time needed                          ...    0.009 sec

-------------------
DFT GRID GENERATION
-------------------

General Integration Accuracy     IntAcc      ... 4.388
Radial Grid Type                 RadialGrid  ... OptM3 with GC (2021)
Angular Grid (max. ang.)         AngularGrid ... 4 (Lebedev-302)
Angular grid pruning method      GridPruning ... 4 (adaptive)
Weight generation scheme         WeightScheme... mBecke (2022)
Basis function cutoff            BFCut       ... 1.0000e-11
Integration weight cutoff        WCut        ... 1.0000e-14
Partially contracted basis set               ... off
Rotationally invariant grid construction     ... off
Angular grids for H and He will be reduced by one unit

Total number of grid points                  ...    50722
Total number of batches                      ...      798
Average number of points per batch           ...       63
Average number of grid points per atom       ...     4227
Initializing property integral containers    ... done (  0.0 sec)

SHARK setup successfully completed in   0.5 seconds

Maximum memory used throughout the entire STARTUP-calculation: 17.5 MB
-------------------------------------------------------------------------------
                                 ORCA GUESS
                   Start orbitals & Density for SCF / CASSCF
-------------------------------------------------------------------------------

------------
SCF SETTINGS
------------
Hamiltonian:
 Ab initio Hamiltonian  Method          .... Hartree-Fock(GTOs)


General Settings:
 Integral files         IntName         .... frag
 Hartree-Fock type      HFTyp           .... RHF
 Total Charge           Charge          ....    0
 Multiplicity           Mult            ....    1
 Number of Electrons    NEL             ....   40
 Basis Dimension        Dim             ....   72
 Nuclear Repulsion      ENuc            ....    131.8231513851 Eh

Convergence Acceleration:
 AO-DIIS                CNVDIIS         .... on
   Start iteration      DIISMaxIt       ....    12
   Startup error        DIISStart       ....  0.200000
   # of expansion vecs  DIISMaxEq       ....     5
   Bias factor          DIISBfac        ....   1.050
   Max. coefficient     DIISMaxC        ....  10.000
 MO-DIIS                CNVKDIIS        .... off
 Trust-Rad. Augm. Hess. CNVTRAH         .... auto
   Auto Start mean grad. ratio tolernc. ....  1.125000
   Auto Start start iteration           ....    50
   Auto Start num. interpolation iter.  ....    10
   Max. Number of Micro iterations      ....    24
   Max. Number of Macro iterations      .... Maxiter - #DIIS iter
   Number of Davidson start vectors     ....     2
   Converg. threshold    (grad. norm)   ....   1.000e-05
   Grad. Scal. Fac. for Micro threshold ....   0.100
   Minimum threshold for Micro iter.    ....   1.000e-02
   NR start threshold (gradient norm)   ....   1.000e-04
   Initial trust radius                 ....   0.400
   Minimum AH scaling param. (alpha)    ....   1.000
   Maximum AH scaling param. (alpha)    .... 1000.000
   Quad. conv. algorithm                .... NR
   White noise on init. David. guess    .... on
   Maximum white noise                  ....   0.010
   Pseudo random numbers                .... off
   Inactive MOs                         .... canonical
   Orbital update algorithm             .... Taylor
   Preconditioner                       .... Diag
   Full preconditioner red. dimension   ....   250
 SOSCF                  CNVSOSCF        .... on
   Start iteration      SOSCFMaxIt      ....   150
   Startup grad/error   SOSCFStart      ....  0.003300
   Hessian update       SOSCFHessUp     .... L-BFGS
 Level Shifting         CNVShift        .... on
   Level shift para.    LevelShift      ....    0.2500
   Turn off err/grad.   ShiftErr        ....    0.0010
 Zerner damping         CNVZerner       .... off
 Static damping         CNVDamp         .... on
   Fraction old density DampFac         ....    0.7000
   Max. Damping (<1)    DampMax         ....    0.9800
   Min. Damping (>=0)   DampMin         ....    0.0000
   Turn off err/grad.   DampErr         ....    0.1000

SCF Procedure:
 Maximum # iterations   MaxIter         ....   125
 SCF integral mode      SCFMode         .... Direct
   Integral package                     .... SHARK and LIBINT hybrid scheme
 Reset frequency        DirectResetFreq ....    20
 Integral Threshold     Thresh          ....  2.500e-11 Eh
 Primitive CutOff       TCut            ....  2.500e-12 Eh

Convergence Tolerance:
 Convergence Check Mode ConvCheckMode   .... Total+1el-Energy
 Convergence forced     ConvForced      .... 0
 Energy Change          TolE            ....  1.000e-08 Eh
 1-El. energy change                    ....  1.000e-05 Eh
 Orbital Gradient       TolG            ....  1.000e-05
 Orbital Rotation angle TolX            ....  1.000e-05
 DIIS Error             TolErr          ....  5.000e-07

------------------------------
INITIAL GUESS: MODEL POTENTIAL
------------------------------
Loading Hartree-Fock densities                     ... done
Calculating cut-offs                               ... done
Initializing the effective Hamiltonian             ... done
Setting up the integral package (SHARK)            ... done
Starting the Coulomb interaction                   ... done (   0.0 sec)
Making the grid                                    ... done (   0.1 sec)
Mapping shells                                     ... done
Starting the XC term evaluation                    ... done (   0.0 sec)
Transforming the Hamiltonian                       ... done (   0.0 sec)
Diagonalizing the Hamiltonian                      ... done (   0.0 sec)
Back transforming the eigenvectors                 ... done (   0.0 sec)
Now organizing SCF variables                       ... done
                      ------------------
                      INITIAL GUESS DONE (   0.2 sec)
                      ------------------
             **** ENERGY FILE WAS UPDATED (frag.en.tmp) ****
Finished Guess after   0.2 sec
Maximum memory used throughout the entire GUESS-calculation: 7.5 MB

-------------------------------------------------------------------------------------------
                                      ORCA LEAN-SCF
                              memory conserving SCF solver
-------------------------------------------------------------------------------------------

----------------------------------------D-I-I-S--------------------------------------------
Iteration    Energy (Eh)           Delta-E    RMSDP     MaxDP     DIISErr   Damp  Time(sec)
-------------------------------------------------------------------------------------------
               ***  Starting incremental Fock matrix formation  ***
    1    -303.5981030473434430     0.00e+00  6.13e-03  7.39e-02  3.35e-01  0.700   0.2
    2    -303.7507824233691736    -1.53e-01  4.18e-03  5.09e-02  2.05e-01  0.700   0.2
                               ***Turning on AO-DIIS***
    3    -303.8336068616915782    -8.28e-02  1.68e-03  2.23e-02  1.16e-01  0.700   0.2
    4    -303.8837717670517122    -5.02e-02  1.04e-03  1.44e-02  7.85e-02  0.700   0.2
    5    -303.9169653522301360    -3.32e-02  2.45e-03  3.41e-02  5.58e-02  0.000   0.2
                              *** Initializing SOSCF ***
---------------------------------------S-O-S-C-F--------------------------------------
Iteration    Energy (Eh)           Delta-E    RMSDP     MaxDP     MaxGrad    Time(sec)
--------------------------------------------------------------------------------------
    6    -303.9911009011847227    -7.41e-02  1.98e-04  2.06e-03  3.24e-03     0.2
               *** Restarting incremental Fock matrix formation ***
    7    -303.9911679734861991    -6.71e-05  1.19e-04  9.91e-04  6.49e-04     0.2
    8    -303.9911806378596566    -1.27e-05  8.05e-05  6.27e-04  2.54e-04     0.2
    9    -303.9911828291044458    -2.19e-06  1.20e-05  1.11e-04  7.63e-05     0.2
   10    -303.9911829613128020    -1.32e-07  1.63e-06  1.95e-05  9.78e-06     0.1
   11    -303.9911829639107737    -2.60e-09  7.96e-07  1.14e-05  3.32e-06     0.1
                 **** Energy Check signals convergence ****

               *****************************************************
               *                     SUCCESS                       *
               *           SCF CONVERGED AFTER  11 CYCLES          *
               *****************************************************

             **** ENERGY FILE WAS UPDATED (frag.en.tmp) ****

----------------
TOTAL SCF ENERGY
----------------

Total Energy       :       -303.99118296391077 Eh           -8272.02063 eV

Components:
Nuclear Repulsion  :        131.82315138512806 Eh            3587.09031 eV
Electronic Energy  :       -435.81433434903886 Eh          -11859.11094 eV
One Electron Energy:       -681.54657082474967 Eh          -18545.82504 eV
Two Electron Energy:        245.73223647571081 Eh            6686.71410 eV

Virial components:
Potential Energy   :       -609.55101105001188 Eh          -16586.72626 eV
Kinetic Energy     :        305.55982808610111 Eh            8314.70563 eV
Virial Ratio       :          1.99486632411068

---------------
SCF CONVERGENCE
---------------

  Last Energy change         ...    2.5980e-09  Tolerance :   1.0000e-08
  Last MAX-Density change    ...    1.1385e-05  Tolerance :   1.0000e-07
  Last RMS-Density change    ...    7.9558e-07  Tolerance :   5.0000e-09
  Last DIIS Error            ...    3.2353e-03  Tolerance :   5.0000e-07
  Last Orbital Gradient      ...    3.3224e-06  Tolerance :   1.0000e-05
  Last Orbital Rotation      ...    3.7888e-06  Tolerance :   1.0000e-05


----------------
ORBITAL ENERGIES
----------------

  NO   OCC          E(Eh)            E(eV) 
   0   2.0000     -20.552571      -559.2639 
   1   2.0000     -20.552129      -559.2519 
   2   2.0000     -20.538912      -558.8922 
   3   2.0000     -20.487687      -557.4983 
   4   2.0000      -1.408361       -38.3235 
   5   2.0000      -1.405402       -38.2429 
   6   2.0000      -1.392765       -37.8990 
   7   2.0000      -1.343408       -36.5560 
   8   2.0000      -0.776337       -21.1252 
   9   2.0000      -0.767730       -20.8910 
  10   2.0000      -0.751160       -20.4401 
  11   2.0000      -0.713854       -19.4250 
  12   2.0000      -0.611925       -16.6513 
  13   2.0000      -0.600749       -16.3472 
  14   2.0000      -0.596400       -16.2289 
  15   2.0000      -0.536649       -14.6029 
  16   2.0000      -0.520575       -14.1656 
  17   2.0000      -0.517103       -14.0711 
  18   2.0000      -0.508567       -13.8388 
  19   2.0000      -0.458765       -12.4836 
  20   0.0000       0.192837         5.2474 
  21   0.0000       0.226890         6.1740 
  22   0.0000       0.274282         7.4636 
  23   0.0000       0.296805         8.0765 
  24   0.0000       0.322626         8.7791 
  25   0.0000       0.331871         9.0307 
  26   0.0000       0.414523        11.2798 
  27   0.0000       0.481975        13.1152 
  28   0.0000       0.991389        26.9771 
  29   0.0000       1.037113        28.2213 
  30   0.0000       1.065589        28.9962 
*Only the first 10 virtual orbitals were printed.

                    ********************************
                    * MULLIKEN POPULATION ANALYSIS *
                    ********************************

-----------------------
MULLIKEN ATOMIC CHARGES
-----------------------
   0 O :   -0.945387
   1 H :    0.437476
   2 H :    0.510090
   3 O :   -0.948086
   4 H :    0.504017
   5 H :    0.426118
   6 O :   -0.891932
   7 H :    0.453682
   8 H :    0.447711
   9 O :   -0.882022
  10 H :    0.444393
  11 H :    0.443940
Sum of atomic charges:   -0.0000000

--------------------------------
MULLIKEN REDUCED ORBITAL CHARGES
--------------------------------
  0 O s       :     3.856284  s :     3.856284
      pz      :     1.909503  p :     5.057661
      px      :     1.493957
      py      :     1.654202
      dz2     :     0.004268  d :     0.031441
      dxz     :     0.003047
      dyz     :     0.003557
      dx2y2   :     0.012446
      dxy     :     0.008123

  1 H s       :     0.562524  s :     0.562524

  2 H s       :     0.489910  s :     0.489910

  3 O s       :     3.851063  s :     3.851063
      pz      :     1.917631  p :     5.064572
      px      :     1.419227
      py      :     1.727714
      dz2     :     0.003426  d :     0.032451
      dxz     :     0.006226
      dyz     :     0.005378
      dx2y2   :     0.009563
      dxy     :     0.007858

  4 H s       :     0.495983  s :     0.495983

  5 H s       :     0.573882  s :     0.573882

  6 O s       :     3.844988  s :     3.844988
      pz      :     1.511813  p :     5.014220
      px      :     1.644583
      py      :     1.857825
      dz2     :     0.006816  d :     0.032723
      dxz     :     0.010554
      dyz     :     0.002642
      dx2y2   :     0.006001
      dxy     :     0.006710

  7 H s       :     0.546318  s :     0.546318

  8 H s       :     0.552289  s :     0.552289

  9 O s       :     3.849758  s :     3.849758
      pz      :     1.714498  p :     4.998305
      px      :     1.704135
      py      :     1.579671
      dz2     :     0.004698  d :     0.033960
      dxz     :     0.009659
      dyz     :     0.002873
      dx2y2   :     0.001845
      dxy     :     0.014886

 10 H s       :     0.555607  s :     0.555607

 11 H s       :     0.556060  s :     0.556060



                     *******************************
                     * LOEWDIN POPULATION ANALYSIS *
                     *******************************

----------------------
LOEWDIN ATOMIC CHARGES
----------------------
   0 O :   -0.616155
   1 H :    0.310244
   2 H :    0.315731
   3 O :   -0.648236
   4 H :    0.303146
   5 H :    0.306233
   6 O :   -0.611293
   7 H :    0.318104
   8 H :    0.315266
   9 O :   -0.618109
  10 H :    0.313512
  11 H :    0.311557

-------------------------------
LOEWDIN REDUCED ORBITAL CHARGES
-------------------------------
  0 O s       :     3.538756  s :     3.538756
      pz      :     1.908656  p :     5.038082
      px      :     1.492323
      py      :     1.637102
      dz2     :     0.004760  d :     0.039318
      dxz     :     0.004100
      dyz     :     0.004114
      dx2y2   :     0.015953
      dxy     :     0.010392

  1 H s       :     0.689756  s :     0.689756

  2 H s       :     0.684269  s :     0.684269

  3 O s       :     3.543897  s :     3.543897
      pz      :     1.920175  p :     5.064230
      px      :     1.423857
      py      :     1.720198
      dz2     :     0.003952  d :     0.040108
      dxz     :     0.007876
      dyz     :     0.005558
      dx2y2   :     0.012673
      dxy     :     0.010049

  4 H s       :     0.696854  s :     0.696854

  5 H s       :     0.693767  s :     0.693767

  6 O s       :     3.550344  s :     3.550344
      pz      :     1.514730  p :     5.019464
      px      :     1.649756
      py      :     1.854978
      dz2     :     0.009172  d :     0.041485
      dxz     :     0.013501
      dyz     :     0.003752
      dx2y2   :     0.006748
      dxy     :     0.008311

  7 H s       :     0.681896  s :     0.681896

  8 H s       :     0.684734  s :     0.684734

  9 O s       :     3.557003  s :     3.557003
      pz      :     1.718233  p :     5.018267
      px      :     1.720088
      py      :     1.579945
      dz2     :     0.005695  d :     0.042839
      dxz     :     0.011697
      dyz     :     0.004455
      dx2y2   :     0.001913
      dxy     :     0.019080

 10 H s       :     0.686488  s :     0.686488

 11 H s       :     0.688443  s :     0.688443



                      *****************************
                      * MAYER POPULATION ANALYSIS *
                      *****************************

  NA   - Mulliken gross atomic population
  ZA   - Total nuclear charge
  QA   - Mulliken gross atomic charge
  VA   - Mayer's total valence
  BVA  - Mayer's bonded valence
  FA   - Mayer's free valence

  ATOM       NA         ZA         QA         VA         BVA        FA
  0 O      8.9454     8.0000    -0.9454     1.5243     1.5243    -0.0000
  1 H      0.5625     1.0000     0.4375     0.7784     0.7784    -0.0000
  2 H      0.4899     1.0000     0.5101     0.7242     0.7242     0.0000
  3 O      8.9481     8.0000    -0.9481     1.4955     1.4955     0.0000
  4 H      0.4960     1.0000     0.5040     0.7329     0.7329    -0.0000
  5 H      0.5739     1.0000     0.4261     0.7840     0.7840    -0.0000
  6 O      8.8919     8.0000    -0.8919     1.5676     1.5676    -0.0000
  7 H      0.5463     1.0000     0.4537     0.7615     0.7615     0.0000
  8 H      0.5523     1.0000     0.4477     0.7640     0.7640     0.0000
  9 O      8.8820     8.0000    -0.8820     1.5680     1.5680    -0.0000
 10 H      0.5556     1.0000     0.4444     0.7667     0.7667    -0.0000
 11 H      0.5561     1.0000     0.4439     0.7691     0.7691    -0.0000

  Mayer bond orders larger than 0.100000
B(  0-O ,  1-H ) :   0.7788 B(  0-O ,  2-H ) :   0.6896 B(  3-O ,  4-H ) :   0.6995 
B(  3-O ,  5-H ) :   0.7924 B(  6-O ,  7-H ) :   0.7695 B(  6-O ,  8-H ) :   0.7698 
B(  9-O , 10-H ) :   0.7755 B(  9-O , 11-H ) :   0.7716 

-------
TIMINGS
-------

Total SCF time: 0 days 0 hours 0 min 2 sec 

Total time                  ....       2.082 sec
Sum of individual times     ....       1.990 sec  ( 95.6%)

SCF preparation             ....       0.093 sec  (  4.5%)
Fock matrix formation       ....       1.629 sec  ( 78.2%)
  Startup                   ....       0.019 sec  (  1.2% of F)
  Coulomb+Exchange Fock     ....       1.544 sec  ( 94.8% of F)
Diagonalization             ....       0.000 sec  (  0.0%)
Density matrix formation    ....       0.073 sec  (  3.5%)
Total Energy calculation    ....       0.019 sec  (  0.9%)
Population analysis         ....       0.017 sec  (  0.8%)
Orbital Transformation      ....       0.016 sec  (  0.8%)
Orbital Orthonormalization  ....       0.000 sec  (  0.0%)
DIIS solution               ....       0.081 sec  (  3.9%)
SOSCF solution              ....       0.063 sec  (  3.0%)
Finished LeanSCF after   2.1 sec

Maximum memory used throughout the entire LEANSCF-calculation: 8.4 MB

-------------------------   --------------------
FINAL SINGLE POINT ENERGY      -303.991182963911
-------------------------   --------------------

------------------------------------------------------------------------------
                         ORCA SCF GRADIENT CALCULATION
------------------------------------------------------------------------------

Nuc. rep. gradient        (SHARK) ... done (  0.0 sec)
HCore & Overlap gradient  (SHARK) ... done (  0.0 sec)
Two-electron gradient     (SHARK) ... done (  0.6 sec)

------------------
CARTESIAN GRADIENT
------------------

   1   O   :    0.041974109   -0.112349009    0.004665027
   2   H   :   -0.104052778    0.016236010   -0.040124072
   3   H   :    0.058414724    0.099963205    0.034445897
   4   O   :   -0.039532575   -0.108927280    0.065195516
   5   H   :   -0.063699947    0.092580453   -0.028533763
   6   H   :    0.104992841    0.012126907   -0.034294954
   7   O   :   -0.112302512   -0.001529100    0.043375992
   8   H   :    0.087173758    0.046356172    0.056652111
   9   H   :    0.028623340   -0.043871370   -0.101584105
  10   O   :    0.113883686    0.017215100    0.041373196
  11   H   :   -0.048423578    0.066223956   -0.078873560
  12   H   :   -0.067051069   -0.084025045    0.037702716

Difference to translation invariance:
           :   -0.0000000001   -0.0000000001   -0.0000000000

Difference to rotation invariance:
           :   -0.0000001287    0.0000000557   -0.0000001619

Norm of the Cartesian gradient     ...    0.4081534560
RMS gradient                       ...    0.0680255760
MAX gradient                       ...    0.1138836860

-------
TIMINGS
-------

Total SCF gradient time     ....        0.661 sec

Densities                   ....       0.000 sec  (  0.0%)
One electron gradient       ....       0.042 sec  (  6.4%)
Two electron gradient       ....       0.619 sec  ( 93.6%)

Maximum memory used throughout the entire SCFGRAD-calculation: 14.2 MB

------------------------------------------------------------------------------
                              ORCA PROPERTY CALCULATIONS
------------------------------------------------------------------------------

GBWName                                 ... frag.gbw
Number of atoms                         ...     12
Number of basis functions               ...     72
Max core memory                         ...   1024 MB

Electric properties:
Dipole moment                           ... YES
Quadrupole moment                       ...  NO
Static polarizability (Dipole/Dipole)   ...  NO
Static polarizability (Dipole/Quad.)    ...  NO
Static polarizability (Quad./Quad.)     ...  NO
Static polarizability (Velocity)        ...  NO

Atomic electric properties:
Dipole moment                           ...  NO
Quadrupole moment                       ...  NO
Static polarizability                   ...  NO

Choice of electric origin               ... Center of mass
Position of electric origin             ...    39.225078    88.158338    76.211797

General magnetic properties:
Magnetizability                         ...  NO

EPR properties:
g-Tensor (aka g-matrix)                 ...  NO
Zero-Field splitting spin-orbit         ...  NO
Zero-field splitting spin-spin          ...  NO
Hyperfine couplings                     ...  NO (   0 nuclei)
Quadrupole couplings                    ...  NO (   0 nuclei)
Contact density                         ...  NO (   0 nuclei)

NMR properties:
Chemical shifts                         ...  NO (   0 nuclei)
Spin-rotation constants                 ...  NO (   0 nuclei)
Spin-spin couplings                     ...  NO (   0 nuclei,    0 pairs)

Choice of magnetic origin               ... GIAO
Position of magnetic origin             ...     0.000000     0.000000     0.000000

Properties with geometric perturbations:
SCF Hessian                             ...  NO
IR spectrum                             ...  NO
VCD spectrum                            ...  NO
X-ray spectroscopy properties:
SCF XES/XAS/RIXS spectra                ...  NO


-------------
DIPOLE MOMENT
-------------

Method             : SCF
Type of density    : Electron Density
Multiplicity       :   1
Irrep              :   0
Energy             :  -303.9911829639107737 Eh
Relativity type    : 
Basis              : AO
                                X                 Y                 Z
Electronic contribution:     -0.014066025      -0.204997043      -0.083366907
Nuclear contribution   :      0.053554083      -1.399939031       1.185681080
                        -----------------------------------------
Total Dipole Moment    :      0.039488058      -1.604936075       1.102314173
                        -----------------------------------------
Magnitude (a.u.)       :      1.947427957
Magnitude (Debye)      :      4.949968486



--------------------
Rotational spectrum 
--------------------
 
Rotational constants in cm-1:             0.157984             0.054948             0.043148 
Rotational constants in MHz :          4736.241363          1647.296672          1293.542191 

Dipole components along the rotational axes: 
x,y,z [a.u.] :    -1.533634     0.483599     1.098441 
x,y,z [Debye]:    -3.898189     1.229210     2.792016 

 

Dipole moment calculation done in   0.0 sec 

Maximum memory used throughout the entire PROP-calculation: 2.8 MB

--------------------------------
SUGGESTED CITATIONS FOR THIS RUN
--------------------------------

Below you find a list of papers that are relevant to this ORCA run
We neither can nor want to force you to cite these papers, but we appreciate if you do
You receive ORCA, which is the product of decades of hard work by many enthusiastic individuals, for free
The only thing we kindly ask in return is that you cite our papers,
We deeply appreciate it, if you show your appreciation for ORCA by not just citing the generic ORCA reference.

Please note that relegating all ORCA citations to the supporting information does *not* help us.
SI sections are not indexed - citations you put there will not count into any citation statistics
But we need these citations in order to attract the funding resources that allow us to do what we are doing

Therefore, if you are a happy ORCA user, please consider citing a few of the papers listed below in the main body of your paper

In addition to the list printed below, the program has created the file frag.bibtex that contains the list in bibtex format
You can import this file easily into all common literature databanks and citation aid programs


List of essential papers. We consider these as the minimum necessary citations

  1. Neese,F.
     Software update: the ORCA program system, version 5.0
     WIRES Comput. Molec. Sci., 2022 12(1)e1606
     doi.org/10.1002/wcms.1606

List of papers to cite with high priority. The work reported in these papers was absolutely
necessary for this run to complete.
Our perspective: the developers of density functionals and basis sets usually get cited in chemistry papers
Good! But without the algorithms to do something with them, the functionals or basis sets would not do anything.
Hence, in our opinion, the algorithm design and method developments papers are equally worthy of getting cited

  1. Neese,F.
     The SHARK Integral Generation and Digestion System
     J. Comp. Chem., 2022  1-16
     doi.org/10.1002/jcc.26942

List of suggested additional citations. These are papers that are important in the 'surrounding' of 
of this run, or papers that preceded the highly important papers. If you like your results we are grateful for a citation.

  1. Neese,F.
     The ORCA program system
     WIRES Comput. Molec. Sci., 2012 2(1)73-78
     doi.org/10.1002/wcms.81
  2. Neese,F.
     Software update: the ORCA program system, version 4.0
     WIRES Comput. Molec. Sci., 2018 8(1)1-6
     doi.org/10.1002/wcms.1327
  3. Neese,F.; Wennmohs,F.; Becker,U.; Riplinger,C.
     The ORCA quantum chemistry program package
     J. Chem. Phys., 2020 152 Art. No. L224108
     doi.org/10.1063/5.0004608

List of optional additional citations

  1. Neese,F.
     Approximate second-order SCF convergence for spin unrestricted wavefunctions
     Chem. Phys. Lett., 2000 325(1-3)93-98
     doi.org/10.1016/s0009-2614(00)00662-x

Timings for individual modules:

Sum of individual times          ...        3.731 sec (=   0.062 min)
Startup calculation              ...        0.544 sec (=   0.009 min)  14.6 %
SCF iterations                   ...        2.415 sec (=   0.040 min)  64.7 %
Property calculations            ...        0.054 sec (=   0.001 min)   1.4 %
SCF Gradient evaluation          ...        0.718 sec (=   0.012 min)  19.2 %
                             ****ORCA TERMINATED NORMALLY****
TOTAL RUN TIME: 0 days 0 hours 0 minutes 3 seconds 953 msec
