
                                 *****************
                                 * O   R   C   A *
                                 *****************

                                            #,                                       
                                            ###                                      
                                            ####                                     
                                            #####                                    
                                            ######                                   
                                           ########,                                 
                                     ,,################,,,,,                         
                               ,,#################################,,                 
                          ,,##########################################,,             
                       ,#########################################, ''#####,          
                    ,#############################################,,   '####,        
                  ,##################################################,,,,####,       
                ,###########''''           ''''###############################       
              ,#####''   ,,,,##########,,,,          '''####'''          '####       
            ,##' ,,,,###########################,,,                        '##       
           ' ,,###''''                  '''############,,,                           
         ,,##''                                '''############,,,,        ,,,,,,###''
      ,#''                                            '''#######################'''  
     '                                                          ''''####''''         
             ,#######,   #######,   ,#######,      ##                                
            ,#'     '#,  ##    ##  ,#'     '#,    #''#        ,####,   ,####,        
            ##       ##  ##   ,#'  ##            #'  '#       #'       #'  '#        
            ##       ##  #######   ##           ,######,      #####,   #    #        
            '#,     ,#'  ##    ##  '#,     ,#' ,#      #,     #,   #   #,  ,#        
             '#######'   ##     ##  '#######'  #'      '#     '####' # '####'        



                #########################################################
                #                        -***-                          #
                #          Department of theory and spectroscopy        #
                #                                                       #
                #                      Frank Neese                      #
                #                                                       #
                #     Directorship, Architecture, Infrastructure        #
                #                    SHARK, DRIVERS                     #
                #        Core code/Algorithms in most modules           #
                #                                                       #
                #        Max Planck Institute fuer Kohlenforschung      #
                #                Kaiser Wilhelm Platz 1                 #
                #                 D-45470 Muelheim/Ruhr                 #
                #                      Germany                          #
                #                                                       #
                #                  All rights reserved                  #
                #                        -***-                          #
                #########################################################


                         Program Version 6.0.1  -  RELEASE   -


 With contributions from (in alphabetic order):
[Max-Planck-Institut fuer Kohlenforschung]                               
  Daniel Aravena         : Magnetic Suceptibility                        
  Michael Atanasov       : Ab Initio Ligand Field Theory (pilot matlab implementation)
  Alexander A. Auer      : GIAO ZORA, VPT2 properties, NMR spectrum      
  Ute Becker             : All parallelization in ORCA, NUMFREQ, NUMCALC 
  Giovanni Bistoni       : ED, misc. LED, open-shell LED, HFLD           
  Martin Brehm           : Molecular dynamics                            
  Dmytro Bykov           : pre 5.0 version of the SCF Hessian            
  Marcos Casanova-Páez   : Triplet and SCS-CIS(D). UHF-(DLPNO)-IP/EA/STEOM-CCSD. UHF-CVS-IP/STEOM-CCSD   
  Vijay G. Chilkuri      : MRCI spin determinant printing, contributions to CSF-ICE 
  Pauline Colinet        : FMM embedding                                 
  Dipayan Datta          : RHF DLPNO-CCSD density                        
  Achintya Kumar Dutta   : EOM-CC, STEOM-CC                              
  Nicolas Foglia         : Exact transition moments, OPA infrastructure, MCD improvements    
  Dmitry Ganyushin       : Spin-Orbit,Spin-Spin,Magnetic field MRCI      
  Miquel Garcia-Rates    : C-PCM and meta-GGA Hessian, CCSD/C-PCM, Gaussian charge scheme 
  Tiago L. C. Gouveia    : GS-ROHF, GS-ROCIS                             
  Yang Guo               : DLPNO-NEVPT2, F12-NEVPT2, CIM, IAO-localization        
  Andreas Hansen         : Spin unrestricted coupled pair/coupled cluster methods 
  Ingolf Harden          : AUTO-CI MPn and infrastructure                
  Benjamin Helmich-Paris : MC-RPA, TRAH-(SCF,CASSCF), AVAS, COSX integrals, SCF dyn. polar. 
  Lee Huntington         : MR-EOM, pCC                                   
  Robert Izsak           : Overlap fitted RIJCOSX, COSX-SCS-MP3, EOM     
  Riya Kayal             : Wick's Theorem for AUTO-CI, AUTO-CI UHF-CCSDT 
  Emily Kempfer          : AUTO-CI, RHF CISDT and CCSDT                  
  Christian Kollmar      : KDIIS, OOCD, Brueckner-CCSD(T), CCSD density, CASPT2, CASPT2-K, improved NEVPT2 
  Axel Koslowski         : Symmetry handling                             
  Simone Kossmann        : meta-GGA functionals, TD-DFT gradient, OOMP2, (MP2 Hessian; deprecated post 5.0) 
  Lucas Lang             : DCDCAS                                        
  Marvin Lechner         : AUTO-CI (C++ implementation), FIC-MRCC        
  Spencer Leger          : CASSCF response                               
  Dagmar Lenk            : GEPOL surface, SMD, ORCA-2-JSON               
  Dimitrios Liakos       : Extrapolation schemes; Compound Job, initial MDCI parallelization 
  Dimitrios Manganas     : Further ROCIS development; embedding schemes. LFT, Crystal Embedding 
  Dimitrios Pantazis     : SARC Basis sets                               
  Anastasios Papadopoulos: AUTO-CI, single reference methods and gradients 
  Taras Petrenko         : pre 6.0 DFT Hessian and TD-DFT gradient, (ASA, deprecated), ECA, 1-Electron XAS/XES, NRVS 
  Peter Pinski           : DLPNO-MP2, DLPNO-MP2 Gradient                 
  Christoph Reimann      : Effective Core Potentials                     
  Marius Retegan         : Local ZFS, SOC                                
  Christoph Riplinger    : Optimizer, TS searches, QM/MM, DLPNO-CCSD(T), (RO)-DLPNO pert. Triples 
  Michael Roemelt        : Original ROCIS implementation                 
  Masaaki Saitow         : Open-shell DLPNO-CCSD energy and density      
  Barbara Sandhoefer     : DKH picture change effects                    
  Kantharuban Sivalingam : CASSCF convergence/infrastructure, NEVPT2 and variants, FIC-MRCI 
  Bernardo de Souza      : ESD, SOC TD-DFT                               
  Georgi L. Stoychev     : AutoAux, RI-MP2 NMR, DLPNO-MP2 response, X2C  
  Van Anh Tran           : RI-MP2 g-tensors                              
  Willem Van den Heuvel  : Paramagnetic NMR                              
  Zikuan Wang            : NOTCH, Electric field optimization            
  Frank Wennmohs         : Technical directorship and infrastructure     
  Hang Xu                : AUTO-CI-Response properties                   
                                                                         
[FACCTs GmbH]                                                            
  Markus Bursch, Miquel Garcia-Rates, Christoph Riplinger, Bernardo de Souza, Georgi L. Stoychev 
                                                                 
  APM, Basis sets (HGBS, AHGBS, def-TZVP (Ac-Lr), def2-XVPD (La-Lu)), CI-OPT, improved COSX, DLPNO-Multilevel,           
  DOCKER, DRACO, updates on ESD, GOAT, IRC, LR-CPCM, MBIS, meta-GGA TD-DFT gradient, ML-optimized integration grids, 
  MM, NACMEs, nearIR, NEB, NEB-TS, NL-DFT gradient (VV10), 2- and 3-layer-ONIOM, interface openCOSMO-RS, QMMM,   
  Crystal-QMMM, SF, symmetry and pop. for TD-DFT, r2SCAN hybrids, SOLVATOR                                   
                                                                         
[Other institutions]                                                     
  V. Asgeirsson          : NEB                                           
  Christoph Bannwarth    : sTDA-DFT, sTD-DFT, PBEh-3c, B97-3c, D3        
  Sebastian Ehlert       : rSCAN, r2SCAN, r2SCAN-3c, D4, dhf basis sets  
  Marvin Friede          : D4 for Fr, Ra, Ac-Lr                          
  Lars Goerigk           : TD-DFT with DH, B97 family of functionals     
  Stefan Grimme          : VdW corrections, initial TS optimization, DFT functionals, gCP, sTDA/sTD-DF 
  Waldemar Hujo          : DFT-NL                                        
  H. Jonsson             : NEB                                           
  Holger Kruse           : gCP                                           
  Marcel Mueller         : wB97X-3c, vDZP basis set                      
  Hagen Neugebauer       : wr2SCAN                                       
  Tobias Risthaus        : range-separated hybrid DFT                    
  Lukas Wittmann         : regularized MP2, r2SCAN double-hybrids, wr2SCAN        
                                                                         
We gratefully acknowledge several colleagues who have allowed us to      
interface, adapt or use parts of their codes:                            
  Ed Valeev, F. Pavosevic, A. Kumar             : LibInt (2-el integral package), F12 methods 
  Garnet Chan, S. Sharma, J. Yang, R. Olivares  : DMRG                   
  Ulf Ekstrom                                   : XCFun DFT Library      
  Mihaly Kallay                                 : mrcc  (arbitrary order and MRCC methods)
  Frank Weinhold                                : gennbo (NPA and NBO analysis)           
  Simon Mueller                                 : openCOSMO-RS                            
  Christopher J. Cramer and Donald G. Truhlar   : smd solvation model                     
  S Lehtola, MJT Oliveira, MAL Marques          : LibXC Library                           
  Liviu Ungur et al                             : ANISO software                          


 Your calculation uses the libint2 library for the computation of 2-el integrals
 For citations please refer to: http://libint.valeyev.net

 Your ORCA version has been built with support for libXC version: 6.2.2
 For citations please refer to: https://libxc.gitlab.io

 This ORCA versions uses:
   CBLAS   interface :  Fast vector & matrix operations
   LAPACKE interface :  Fast linear algebra routines
   SCALAPACK package :  Parallel linear algebra routines
   Shared memory     :  Shared parallel matrices
   BLAS/LAPACK       :  OpenBLAS 0.3.27  USE64BITINT DYNAMIC_ARCH NO_AFFINITY SkylakeX SINGLE_THREADED
        Core in use  :  SkylakeX
   Copyright (c) 2011-2014, The OpenBLAS Project


================================================================================

----- Orbital basis set information -----
Your calculation utilizes the basis: 6-31G*
   H-He, Li-Ne : W. J. Hehre, R. Ditchfield and J.A. Pople, J. Chem. Phys. 56, 2257 (1972).
                 Note: He and Ne are unpublished basis sets taken from the Gaussian program.
                 Note: Li and B from J. D. Dill and J. A. Pople, J. Chem. Phys. 62, 2921 (1975).
   Na - Ar     : M. M. Francl, W. J. Pietro, W. J. Hehre, J. S. Binkley, M. S. Gordon, 
                 D. J. DeFrees and J. A. Pople, J. Chem. Phys. 77, 3654 (1982).
   K - Zn      : V. A. Rassolov, J. A. Pople, M. A. Ratner, and T. L. Windus, J. Chem. Phys. 109, 1223 (1998).

================================================================================
                                        WARNINGS
                       Please study these warnings very carefully!
================================================================================


================================================================================
                                       INPUT FILE
================================================================================
NAME = frag.inp
|  1> !HF 6-31G* EnGrad
|  2> %pal nprocs 1 end
|  3> *xyz 0 1
|  4> O 21.31548000 47.19077000 40.87238000
|  5> H 22.11097000 46.98487000 41.16553000
|  6> H 20.96265000 46.41737000 40.67613000
|  7> O 19.10373000 45.58535000 40.48424000
|  8> H 18.38270000 45.25544000 40.12036000
|  9> H 18.82331000 45.89664000 41.24949000
| 10> O 22.25294000 44.28778000 39.87163000
| 11> H 22.68414000 43.83080000 40.47691000
| 12> H 22.81575000 44.91633000 39.64956000
| 13> O 21.99613000 48.36911000 43.54199000
| 14> H 21.97702000 49.24128000 43.53308000
| 15> H 21.46413000 48.14557000 42.88766000
| 16> *
| 17> 
| 18>                          ****END OF INPUT****
================================================================================

                     *******************************
                     * Energy+Gradient Calculation *
                     *******************************

---------------------------------
CARTESIAN COORDINATES (ANGSTROEM)
---------------------------------
  O     21.315480   47.190770   40.872380
  H     22.110970   46.984870   41.165530
  H     20.962650   46.417370   40.676130
  O     19.103730   45.585350   40.484240
  H     18.382700   45.255440   40.120360
  H     18.823310   45.896640   41.249490
  O     22.252940   44.287780   39.871630
  H     22.684140   43.830800   40.476910
  H     22.815750   44.916330   39.649560
  O     21.996130   48.369110   43.541990
  H     21.977020   49.241280   43.533080
  H     21.464130   48.145570   42.887660

----------------------------
CARTESIAN COORDINATES (A.U.)
----------------------------
  NO LB      ZA    FRAG     MASS         X           Y           Z
   0 O     8.0000    0    15.999   40.280420   89.177631   77.237605
   1 H     1.0000    0     1.008   41.783678   88.788537   77.791578
   2 H     1.0000    0     1.008   39.613668   87.716117   76.866746
   3 O     8.0000    0    15.999   36.100818   86.143827   76.504126
   4 H     1.0000    0     1.008   34.738269   85.520388   75.816493
   5 H     1.0000    0     1.008   35.570901   86.732080   77.950239
   6 O     8.0000    0    15.999   42.051962   83.691775   75.346461
   7 H     1.0000    0     1.008   42.866812   82.828208   76.490275
   8 H     1.0000    0     1.008   43.115519   84.879563   74.926810
   9 O     8.0000    0    15.999   41.566662   91.404371   82.282436
  10 H     1.0000    0     1.008   41.530549   93.052534   82.265599
  11 H     1.0000    0     1.008   40.561327   90.981942   81.045932

--------------------------------
INTERNAL COORDINATES (ANGSTROEM)
--------------------------------
 O      0   0   0     0.000000000000     0.00000000     0.00000000
 H      1   0   0     0.872431127712     0.00000000     0.00000000
 H      1   2   0     0.872439471482   103.59872274     0.00000000
 O      3   1   2     2.045644792944   138.51760024   155.95761940
 H      4   3   1     0.872429666735   160.72623553   104.87007073
 H      4   3   1     0.872435901944    93.70851241   310.81868034
 O      3   1   2     2.616719721751   126.24180712   329.77871731
 H      7   3   1     0.872426523439   117.17456234    76.98324549
 H      7   3   1     0.872436406565    79.04835924   337.20315741
 O      2   1   3     2.752611620770    97.66454154   232.09709776
 H     10   2   1     0.872424832923   119.65867956   292.19524676
 H     10   2   1     0.872434456277    41.32939881     8.44035756

---------------------------
INTERNAL COORDINATES (A.U.)
---------------------------
 O      0   0   0     0.000000000000     0.00000000     0.00000000
 H      1   0   0     1.648655902083     0.00000000     0.00000000
 H      1   2   0     1.648671669524   103.59872274     0.00000000
 O      3   1   2     3.865708425947   138.51760024   155.95761940
 H      4   3   1     1.648653141238   160.72623553   104.87007073
 H      4   3   1     1.648664924074    93.70851241   310.81868034
 O      3   1   2     4.944883643340   126.24180712   329.77871731
 H      7   3   1     1.648647201269   117.17456234    76.98324549
 H      7   3   1     1.648665877670    79.04835924   337.20315741
 O      2   1   3     5.201682116305    97.66454154   232.09709776
 H     10   2   1     1.648644006656   119.65867956   292.19524676
 H     10   2   1     1.648662192161    41.32939881     8.44035756

---------------------
BASIS SET INFORMATION
---------------------
There are 2 groups of distinct atoms

 Group   1 Type O   : 10s4p1d contracted to 3s2p1d pattern {631/31/1}
 Group   2 Type H   : 4s contracted to 2s pattern {31}

Atom   0O    basis set group =>   1
Atom   1H    basis set group =>   2
Atom   2H    basis set group =>   2
Atom   3O    basis set group =>   1
Atom   4H    basis set group =>   2
Atom   5H    basis set group =>   2
Atom   6O    basis set group =>   1
Atom   7H    basis set group =>   2
Atom   8H    basis set group =>   2
Atom   9O    basis set group =>   1
Atom  10H    basis set group =>   2
Atom  11H    basis set group =>   2
------------------------------------------------------------------------------
                             ORCA STARTUP CALCULATIONS
------------------------------------------------------------------------------
------------------------------------------------------------------------------
                   ___                                                        
                  /   \      - P O W E R E D   B Y -                         
                 /     \                                                     
                 |  |  |   _    _      __       _____    __    __             
                 |  |  |  | |  | |    /  \     |  _  \  |  |  /  |          
                  \  \/   | |  | |   /    \    | | | |  |  | /  /          
                 / \  \   | |__| |  /  /\  \   | |_| |  |  |/  /          
                |  |  |   |  __  | /  /__\  \  |    /   |      \           
                |  |  |   | |  | | |   __   |  |    \   |  |\   \          
                \     /   | |  | | |  |  |  |  | |\  \  |  | \   \       
                 \___/    |_|  |_| |__|  |__|  |_| \__\ |__|  \__/        
                                                                              
                      - O R C A' S   B I G   F R I E N D -                    
                                      &                                       
                       - I N T E G R A L  F E E D E R -                       
                                                                              
 v1 FN, 2020, v2 2021, v3 2022-2024                                           
------------------------------------------------------------------------------


----------------------
SHARK INTEGRAL PACKAGE
----------------------

Number of atoms                             ...     12
Number of basis functions                   ...     72
Number of shells                            ...     40
Maximum angular momentum                    ...      2
Integral batch strategy                     ... SHARK/LIBINT Hybrid
RI-J (if used) integral strategy            ... SPLIT-RIJ (Revised 2003 algorithm where possible)
Printlevel                                  ...      1
Contraction scheme used                     ... SEGMENTED contraction
Prescreening option                         ... SCHWARTZ
   Thresh                                   ... 2.500e-11
   Tcut                                     ... 2.500e-12
   Tpresel                                  ... 2.500e-12 
Coulomb Range Separation                    ... NOT USED
Exchange Range Separation                   ... NOT USED
Multipole approximations                    ... NOT USED
Finite Nucleus Model                        ... NOT USED
CABS basis                                  ... NOT available
Auxiliary Coulomb fitting basis             ... NOT available
Auxiliary J/K fitting basis                 ... NOT available
Auxiliary Correlation fitting basis         ... NOT available
Auxiliary 'external' fitting basis          ... NOT available

Checking pre-screening integrals            ... done (  0.0 sec) Dimension = 40
Check shell pair data                       ... done (  0.0 sec)
Shell pair information
Shell pair cut-off parameter TPreSel        ...   2.5e-12
Total number of shell pairs                 ...       820
Shell pairs after pre-screening             ...       725
Total number of primitive shell pairs       ...      4386
Primitive shell pairs kept                  ...      2543
          la=0 lb=0:    358 shell pairs
          la=1 lb=0:    201 shell pairs
          la=1 lb=1:     34 shell pairs
          la=2 lb=0:     96 shell pairs
          la=2 lb=1:     28 shell pairs
          la=2 lb=2:      8 shell pairs

Calculating one electron integrals          ... done (  0.0 sec)
Calculating Nuclear repulsion               ... done (  0.0 sec) ENN=    128.797551928049 Eh

Diagonalization of the overlap matrix:
Smallest eigenvalue                        ... 3.405e-02
Time for diagonalization                   ...    0.002 sec
Threshold for overlap eigenvalues          ... 1.000e-07
Number of eigenvalues below threshold      ... 0
Time for construction of square roots      ...    0.002 sec
Total time needed                          ...    0.008 sec

-------------------
DFT GRID GENERATION
-------------------

General Integration Accuracy     IntAcc      ... 4.388
Radial Grid Type                 RadialGrid  ... OptM3 with GC (2021)
Angular Grid (max. ang.)         AngularGrid ... 4 (Lebedev-302)
Angular grid pruning method      GridPruning ... 4 (adaptive)
Weight generation scheme         WeightScheme... mBecke (2022)
Basis function cutoff            BFCut       ... 1.0000e-11
Integration weight cutoff        WCut        ... 1.0000e-14
Partially contracted basis set               ... off
Rotationally invariant grid construction     ... off
Angular grids for H and He will be reduced by one unit

Total number of grid points                  ...    50727
Total number of batches                      ...      798
Average number of points per batch           ...       63
Average number of grid points per atom       ...     4227
Initializing property integral containers    ... done (  0.0 sec)

SHARK setup successfully completed in   0.5 seconds

Maximum memory used throughout the entire STARTUP-calculation: 17.4 MB
-------------------------------------------------------------------------------
                                 ORCA GUESS
                   Start orbitals & Density for SCF / CASSCF
-------------------------------------------------------------------------------

------------
SCF SETTINGS
------------
Hamiltonian:
 Ab initio Hamiltonian  Method          .... Hartree-Fock(GTOs)


General Settings:
 Integral files         IntName         .... frag
 Hartree-Fock type      HFTyp           .... RHF
 Total Charge           Charge          ....    0
 Multiplicity           Mult            ....    1
 Number of Electrons    NEL             ....   40
 Basis Dimension        Dim             ....   72
 Nuclear Repulsion      ENuc            ....    128.7975519280 Eh

Convergence Acceleration:
 AO-DIIS                CNVDIIS         .... on
   Start iteration      DIISMaxIt       ....    12
   Startup error        DIISStart       ....  0.200000
   # of expansion vecs  DIISMaxEq       ....     5
   Bias factor          DIISBfac        ....   1.050
   Max. coefficient     DIISMaxC        ....  10.000
 MO-DIIS                CNVKDIIS        .... off
 Trust-Rad. Augm. Hess. CNVTRAH         .... auto
   Auto Start mean grad. ratio tolernc. ....  1.125000
   Auto Start start iteration           ....    50
   Auto Start num. interpolation iter.  ....    10
   Max. Number of Micro iterations      ....    24
   Max. Number of Macro iterations      .... Maxiter - #DIIS iter
   Number of Davidson start vectors     ....     2
   Converg. threshold    (grad. norm)   ....   1.000e-05
   Grad. Scal. Fac. for Micro threshold ....   0.100
   Minimum threshold for Micro iter.    ....   1.000e-02
   NR start threshold (gradient norm)   ....   1.000e-04
   Initial trust radius                 ....   0.400
   Minimum AH scaling param. (alpha)    ....   1.000
   Maximum AH scaling param. (alpha)    .... 1000.000
   Quad. conv. algorithm                .... NR
   White noise on init. David. guess    .... on
   Maximum white noise                  ....   0.010
   Pseudo random numbers                .... off
   Inactive MOs                         .... canonical
   Orbital update algorithm             .... Taylor
   Preconditioner                       .... Diag
   Full preconditioner red. dimension   ....   250
 SOSCF                  CNVSOSCF        .... on
   Start iteration      SOSCFMaxIt      ....   150
   Startup grad/error   SOSCFStart      ....  0.003300
   Hessian update       SOSCFHessUp     .... L-BFGS
 Level Shifting         CNVShift        .... on
   Level shift para.    LevelShift      ....    0.2500
   Turn off err/grad.   ShiftErr        ....    0.0010
 Zerner damping         CNVZerner       .... off
 Static damping         CNVDamp         .... on
   Fraction old density DampFac         ....    0.7000
   Max. Damping (<1)    DampMax         ....    0.9800
   Min. Damping (>=0)   DampMin         ....    0.0000
   Turn off err/grad.   DampErr         ....    0.1000

SCF Procedure:
 Maximum # iterations   MaxIter         ....   125
 SCF integral mode      SCFMode         .... Direct
   Integral package                     .... SHARK and LIBINT hybrid scheme
 Reset frequency        DirectResetFreq ....    20
 Integral Threshold     Thresh          ....  2.500e-11 Eh
 Primitive CutOff       TCut            ....  2.500e-12 Eh

Convergence Tolerance:
 Convergence Check Mode ConvCheckMode   .... Total+1el-Energy
 Convergence forced     ConvForced      .... 0
 Energy Change          TolE            ....  1.000e-08 Eh
 1-El. energy change                    ....  1.000e-05 Eh
 Orbital Gradient       TolG            ....  1.000e-05
 Orbital Rotation angle TolX            ....  1.000e-05
 DIIS Error             TolErr          ....  5.000e-07

------------------------------
INITIAL GUESS: MODEL POTENTIAL
------------------------------
Loading Hartree-Fock densities                     ... done
Calculating cut-offs                               ... done
Initializing the effective Hamiltonian             ... done
Setting up the integral package (SHARK)            ... done
Starting the Coulomb interaction                   ... done (   0.0 sec)
Making the grid                                    ... done (   0.1 sec)
Mapping shells                                     ... done
Starting the XC term evaluation                    ... done (   0.0 sec)
Transforming the Hamiltonian                       ... done (   0.0 sec)
Diagonalizing the Hamiltonian                      ... done (   0.0 sec)
Back transforming the eigenvectors                 ... done (   0.0 sec)
Now organizing SCF variables                       ... done
                      ------------------
                      INITIAL GUESS DONE (   0.2 sec)
                      ------------------
             **** ENERGY FILE WAS UPDATED (frag.en.tmp) ****
Finished Guess after   0.2 sec
Maximum memory used throughout the entire GUESS-calculation: 7.4 MB

-------------------------------------------------------------------------------------------
                                      ORCA LEAN-SCF
                              memory conserving SCF solver
-------------------------------------------------------------------------------------------

----------------------------------------D-I-I-S--------------------------------------------
Iteration    Energy (Eh)           Delta-E    RMSDP     MaxDP     DIISErr   Damp  Time(sec)
-------------------------------------------------------------------------------------------
               ***  Starting incremental Fock matrix formation  ***
    1    -303.5952890329084539     0.00e+00  6.15e-03  7.17e-02  3.31e-01  0.700   0.3
    2    -303.7495334721157860    -1.54e-01  4.19e-03  4.93e-02  2.02e-01  0.700   0.2
                               ***Turning on AO-DIIS***
    3    -303.8329794409730766    -8.34e-02  1.66e-03  2.19e-02  1.13e-01  0.700   0.2
    4    -303.8834487938773918    -5.05e-02  1.02e-03  1.40e-02  7.68e-02  0.700   0.2
    5    -303.9168230961021209    -3.34e-02  2.38e-03  3.32e-02  5.46e-02  0.000   0.2
    6    -303.9913112078885433    -7.45e-02  1.88e-04  1.82e-03  3.38e-03  0.000   0.2
                              *** Initializing SOSCF ***
---------------------------------------S-O-S-C-F--------------------------------------
Iteration    Energy (Eh)           Delta-E    RMSDP     MaxDP     MaxGrad    Time(sec)
--------------------------------------------------------------------------------------
    7    -303.9913753130300620    -6.41e-05  1.13e-04  9.51e-04  1.20e-03     0.1
               *** Restarting incremental Fock matrix formation ***
    8    -303.9913883319998149    -1.30e-05  4.80e-05  5.12e-04  2.17e-04     0.2
    9    -303.9913897419202158    -1.41e-06  3.03e-05  2.43e-04  7.84e-05     0.1
   10    -303.9913900050215716    -2.63e-07  3.70e-06  5.88e-05  2.58e-05     0.1
   11    -303.9913900169859744    -1.20e-08  1.02e-06  1.33e-05  7.67e-06     0.1
   12    -303.9913900177649566    -7.79e-10  2.00e-07  2.59e-06  8.75e-07     0.1
                 **** Energy Check signals convergence ****

               *****************************************************
               *                     SUCCESS                       *
               *           SCF CONVERGED AFTER  12 CYCLES          *
               *****************************************************

             **** ENERGY FILE WAS UPDATED (frag.en.tmp) ****

----------------
TOTAL SCF ENERGY
----------------

Total Energy       :       -303.99139001776496 Eh           -8272.02626 eV

Components:
Nuclear Repulsion  :        128.79755192804916 Eh            3504.75957 eV
Electronic Energy  :       -432.78894194581409 Eh          -11776.78583 eV
One Electron Energy:       -675.45541170147214 Eh          -18380.07618 eV
Two Electron Energy:        242.66646975565806 Eh            6603.29035 eV

Virial components:
Potential Energy   :       -609.52717302895132 Eh          -16586.07760 eV
Kinetic Energy     :        305.53578301118637 Eh            8314.05133 eV
Virial Ratio       :          1.99494529583998

---------------
SCF CONVERGENCE
---------------

  Last Energy change         ...    7.7898e-10  Tolerance :   1.0000e-08
  Last MAX-Density change    ...    2.5855e-06  Tolerance :   1.0000e-07
  Last RMS-Density change    ...    2.0049e-07  Tolerance :   5.0000e-09
  Last DIIS Error            ...    1.2016e-03  Tolerance :   5.0000e-07
  Last Orbital Gradient      ...    8.7532e-07  Tolerance :   1.0000e-05
  Last Orbital Rotation      ...    9.6032e-07  Tolerance :   1.0000e-05


----------------
ORBITAL ENERGIES
----------------

  NO   OCC          E(Eh)            E(eV) 
   0   2.0000     -20.545896      -559.0822 
   1   2.0000     -20.545609      -559.0744 
   2   2.0000     -20.525933      -558.5390 
   3   2.0000     -20.521508      -558.4186 
   4   2.0000      -1.401013       -38.1235 
   5   2.0000      -1.399080       -38.0709 
   6   2.0000      -1.381045       -37.5801 
   7   2.0000      -1.373686       -37.3799 
   8   2.0000      -0.768494       -20.9118 
   9   2.0000      -0.761563       -20.7232 
  10   2.0000      -0.747061       -20.3286 
  11   2.0000      -0.731533       -19.9060 
  12   2.0000      -0.602180       -16.3862 
  13   2.0000      -0.592980       -16.1358 
  14   2.0000      -0.583072       -15.8662 
  15   2.0000      -0.571445       -15.5498 
  16   2.0000      -0.513885       -13.9835 
  17   2.0000      -0.510610       -13.8944 
  18   2.0000      -0.496339       -13.5061 
  19   2.0000      -0.488302       -13.2874 
  20   0.0000       0.201788         5.4909 
  21   0.0000       0.234404         6.3784 
  22   0.0000       0.256775         6.9872 
  23   0.0000       0.301039         8.1917 
  24   0.0000       0.321516         8.7489 
  25   0.0000       0.343632         9.3507 
  26   0.0000       0.396502        10.7894 
  27   0.0000       0.442414        12.0387 
  28   0.0000       1.005216        27.3533 
  29   0.0000       1.050251        28.5788 
  30   0.0000       1.070190        29.1214 
*Only the first 10 virtual orbitals were printed.

                    ********************************
                    * MULLIKEN POPULATION ANALYSIS *
                    ********************************

-----------------------
MULLIKEN ATOMIC CHARGES
-----------------------
   0 O :   -0.941867
   1 H :    0.436945
   2 H :    0.506181
   3 O :   -0.890579
   4 H :    0.451532
   5 H :    0.447996
   6 O :   -0.882734
   7 H :    0.445017
   8 H :    0.443854
   9 O :   -0.924098
  10 H :    0.440393
  11 H :    0.467361
Sum of atomic charges:    0.0000000

--------------------------------
MULLIKEN REDUCED ORBITAL CHARGES
--------------------------------
  0 O s       :     3.863140  s :     3.863140
      pz      :     1.903345  p :     5.046056
      px      :     1.485856
      py      :     1.656855
      dz2     :     0.004603  d :     0.032671
      dxz     :     0.003245
      dyz     :     0.003566
      dx2y2   :     0.012769
      dxy     :     0.008487

  1 H s       :     0.563055  s :     0.563055

  2 H s       :     0.493819  s :     0.493819

  3 O s       :     3.844971  s :     3.844971
      pz      :     1.512041  p :     5.012837
      px      :     1.643263
      py      :     1.857533
      dz2     :     0.006812  d :     0.032771
      dxz     :     0.010578
      dyz     :     0.002620
      dx2y2   :     0.006015
      dxy     :     0.006746

  4 H s       :     0.548468  s :     0.548468

  5 H s       :     0.552004  s :     0.552004

  6 O s       :     3.849496  s :     3.849496
      pz      :     1.714993  p :     4.999347
      px      :     1.704363
      py      :     1.579991
      dz2     :     0.004658  d :     0.033891
      dxz     :     0.009647
      dyz     :     0.002867
      dx2y2   :     0.001839
      dxy     :     0.014880

  7 H s       :     0.554983  s :     0.554983

  8 H s       :     0.556146  s :     0.556146

  9 O s       :     3.851543  s :     3.851543
      pz      :     1.752585  p :     5.039629
      px      :     1.824054
      py      :     1.462990
      dz2     :     0.007121  d :     0.032926
      dxz     :     0.010260
      dyz     :     0.001731
      dx2y2   :     0.012232
      dxy     :     0.001582

 10 H s       :     0.559607  s :     0.559607

 11 H s       :     0.532639  s :     0.532639



                     *******************************
                     * LOEWDIN POPULATION ANALYSIS *
                     *******************************

----------------------
LOEWDIN ATOMIC CHARGES
----------------------
   0 O :   -0.630932
   1 H :    0.307493
   2 H :    0.313739
   3 O :   -0.610813
   4 H :    0.316844
   5 H :    0.315530
   6 O :   -0.618570
   7 H :    0.313854
   8 H :    0.311427
   9 O :   -0.639751
  10 H :    0.312617
  11 H :    0.308564

-------------------------------
LOEWDIN REDUCED ORBITAL CHARGES
-------------------------------
  0 O s       :     3.547681  s :     3.547681
      pz      :     1.900226  p :     5.042863
      px      :     1.487999
      py      :     1.654638
      dz2     :     0.005139  d :     0.040389
      dxz     :     0.004252
      dyz     :     0.004172
      dx2y2   :     0.016127
      dxy     :     0.010699

  1 H s       :     0.692507  s :     0.692507

  2 H s       :     0.686261  s :     0.686261

  3 O s       :     3.550536  s :     3.550536
      pz      :     1.514888  p :     5.018700
      px      :     1.648888
      py      :     1.854924
      dz2     :     0.009167  d :     0.041578
      dxz     :     0.013538
      dyz     :     0.003731
      dx2y2   :     0.006778
      dxy     :     0.008364

  4 H s       :     0.683156  s :     0.683156

  5 H s       :     0.684470  s :     0.684470

  6 O s       :     3.556797  s :     3.556797
      pz      :     1.718618  p :     5.019024
      px      :     1.720216
      py      :     1.580190
      dz2     :     0.005656  d :     0.042749
      dxz     :     0.011675
      dyz     :     0.004442
      dx2y2   :     0.001908
      dxy     :     0.019067

  7 H s       :     0.686146  s :     0.686146

  8 H s       :     0.688573  s :     0.688573

  9 O s       :     3.551414  s :     3.551414
      pz      :     1.749284  p :     5.047386
      px      :     1.828248
      py      :     1.469854
      dz2     :     0.008849  d :     0.040951
      dxz     :     0.012051
      dyz     :     0.002229
      dx2y2   :     0.015906
      dxy     :     0.001916

 10 H s       :     0.687383  s :     0.687383

 11 H s       :     0.691436  s :     0.691436



                      *****************************
                      * MAYER POPULATION ANALYSIS *
                      *****************************

  NA   - Mulliken gross atomic population
  ZA   - Total nuclear charge
  QA   - Mulliken gross atomic charge
  VA   - Mayer's total valence
  BVA  - Mayer's bonded valence
  FA   - Mayer's free valence

  ATOM       NA         ZA         QA         VA         BVA        FA
  0 O      8.9419     8.0000    -0.9419     1.5229     1.5229    -0.0000
  1 H      0.5631     1.0000     0.4369     0.7792     0.7792     0.0000
  2 H      0.4938     1.0000     0.5062     0.7277     0.7277     0.0000
  3 O      8.8906     8.0000    -0.8906     1.5681     1.5681    -0.0000
  4 H      0.5485     1.0000     0.4515     0.7630     0.7630    -0.0000
  5 H      0.5520     1.0000     0.4480     0.7639     0.7639     0.0000
  6 O      8.8827     8.0000    -0.8827     1.5674     1.5674     0.0000
  7 H      0.5550     1.0000     0.4450     0.7663     0.7663     0.0000
  8 H      0.5561     1.0000     0.4439     0.7692     0.7692     0.0000
  9 O      8.9241     8.0000    -0.9241     1.5195     1.5195     0.0000
 10 H      0.5596     1.0000     0.4404     0.7722     0.7722     0.0000
 11 H      0.5326     1.0000     0.4674     0.7662     0.7662     0.0000

  Mayer bond orders larger than 0.100000
B(  0-O ,  1-H ) :   0.7737 B(  0-O ,  2-H ) :   0.6946 B(  3-O ,  4-H ) :   0.7710 
B(  3-O ,  5-H ) :   0.7697 B(  6-O ,  7-H ) :   0.7751 B(  6-O ,  8-H ) :   0.7717 
B(  9-O , 10-H ) :   0.7816 B(  9-O , 11-H ) :   0.7304 

-------
TIMINGS
-------

Total SCF time: 0 days 0 hours 0 min 2 sec 

Total time                  ....       2.174 sec
Sum of individual times     ....       2.076 sec  ( 95.5%)

SCF preparation             ....       0.069 sec  (  3.2%)
Fock matrix formation       ....       1.709 sec  ( 78.6%)
  Startup                   ....       0.034 sec  (  2.0% of F)
  Coulomb+Exchange Fock     ....       1.619 sec  ( 94.8% of F)
Diagonalization             ....       0.000 sec  (  0.0%)
Density matrix formation    ....       0.090 sec  (  4.1%)
Total Energy calculation    ....       0.025 sec  (  1.2%)
Population analysis         ....       0.016 sec  (  0.7%)
Orbital Transformation      ....       0.019 sec  (  0.9%)
Orbital Orthonormalization  ....       0.000 sec  (  0.0%)
DIIS solution               ....       0.102 sec  (  4.7%)
SOSCF solution              ....       0.047 sec  (  2.2%)
Finished LeanSCF after   2.2 sec

Maximum memory used throughout the entire LEANSCF-calculation: 8.3 MB

-------------------------   --------------------
FINAL SINGLE POINT ENERGY      -303.991390017765
-------------------------   --------------------

------------------------------------------------------------------------------
                         ORCA SCF GRADIENT CALCULATION
------------------------------------------------------------------------------

Nuc. rep. gradient        (SHARK) ... done (  0.0 sec)
HCore & Overlap gradient  (SHARK) ... done (  0.0 sec)
Two-electron gradient     (SHARK) ... done (  0.6 sec)

------------------
CARTESIAN GRADIENT
------------------

   1   O   :    0.044566639   -0.118860028    0.005731942
   2   H   :   -0.105360766    0.017788000   -0.039092756
   3   H   :    0.058002338    0.099602804    0.033091440
   4   O   :   -0.111847983   -0.000586957    0.043854187
   5   H   :    0.087138698    0.046250857    0.056297650
   6   H   :    0.028375338   -0.044315828   -0.101372030
   7   O   :    0.113795011    0.017804452    0.042265612
   8   H   :   -0.048366223    0.065881443   -0.079208747
   9   H   :   -0.066936585   -0.084214388    0.037085470
  10   O   :   -0.065340453    0.074538618   -0.079578431
  11   H   :   -0.003506786   -0.112645331   -0.005466487
  12   H   :    0.069480773    0.038756358    0.086392150

Difference to translation invariance:
           :   -0.0000000000   -0.0000000000   -0.0000000000

Difference to rotation invariance:
           :   -0.0000002014    0.0000003840   -0.0000002777

Norm of the Cartesian gradient     ...    0.4092550013
RMS gradient                       ...    0.0682091669
MAX gradient                       ...    0.1188600278

-------
TIMINGS
-------

Total SCF gradient time     ....        0.592 sec

Densities                   ....       0.000 sec  (  0.0%)
One electron gradient       ....       0.036 sec  (  6.2%)
Two electron gradient       ....       0.555 sec  ( 93.8%)

Maximum memory used throughout the entire SCFGRAD-calculation: 14.1 MB

------------------------------------------------------------------------------
                              ORCA PROPERTY CALCULATIONS
------------------------------------------------------------------------------

GBWName                                 ... frag.gbw
Number of atoms                         ...     12
Number of basis functions               ...     72
Max core memory                         ...   1024 MB

Electric properties:
Dipole moment                           ... YES
Quadrupole moment                       ...  NO
Static polarizability (Dipole/Dipole)   ...  NO
Static polarizability (Dipole/Quad.)    ...  NO
Static polarizability (Quad./Quad.)     ...  NO
Static polarizability (Velocity)        ...  NO

Atomic electric properties:
Dipole moment                           ...  NO
Quadrupole moment                       ...  NO
Static polarizability                   ...  NO

Choice of electric origin               ... Center of mass
Position of electric origin             ...    39.996902    87.599703    77.848426

General magnetic properties:
Magnetizability                         ...  NO

EPR properties:
g-Tensor (aka g-matrix)                 ...  NO
Zero-Field splitting spin-orbit         ...  NO
Zero-field splitting spin-spin          ...  NO
Hyperfine couplings                     ...  NO (   0 nuclei)
Quadrupole couplings                    ...  NO (   0 nuclei)
Contact density                         ...  NO (   0 nuclei)

NMR properties:
Chemical shifts                         ...  NO (   0 nuclei)
Spin-rotation constants                 ...  NO (   0 nuclei)
Spin-spin couplings                     ...  NO (   0 nuclei,    0 pairs)

Choice of magnetic origin               ... GIAO
Position of magnetic origin             ...     0.000000     0.000000     0.000000

Properties with geometric perturbations:
SCF Hessian                             ...  NO
IR spectrum                             ...  NO
VCD spectrum                            ...  NO
X-ray spectroscopy properties:
SCF XES/XAS/RIXS spectra                ...  NO


-------------
DIPOLE MOMENT
-------------

Method             : SCF
Type of density    : Electron Density
Multiplicity       :   1
Irrep              :   0
Energy             :  -303.9913900177649566 Eh
Relativity type    : 
Basis              : AO
                                X                 Y                 Z
Electronic contribution:     -0.112756073      -0.147369510      -0.151650436
Nuclear contribution   :     -0.096462274      -0.147927132       0.181654385
                        -----------------------------------------
Total Dipole Moment    :     -0.209218347      -0.295296643       0.030003949
                        -----------------------------------------
Magnitude (a.u.)       :      0.363142755
Magnitude (Debye)      :      0.923035530



--------------------
Rotational spectrum 
--------------------
 
Rotational constants in cm-1:             0.131151             0.052641             0.040407 
Rotational constants in MHz :          3931.820513          1578.136638          1211.362256 

Dipole components along the rotational axes: 
x,y,z [a.u.] :    -0.237103     0.139548     0.237026 
x,y,z [Debye]:    -0.602668     0.354703     0.602472 

 

Dipole moment calculation done in   0.0 sec 

Maximum memory used throughout the entire PROP-calculation: 2.8 MB

--------------------------------
SUGGESTED CITATIONS FOR THIS RUN
--------------------------------

Below you find a list of papers that are relevant to this ORCA run
We neither can nor want to force you to cite these papers, but we appreciate if you do
You receive ORCA, which is the product of decades of hard work by many enthusiastic individuals, for free
The only thing we kindly ask in return is that you cite our papers,
We deeply appreciate it, if you show your appreciation for ORCA by not just citing the generic ORCA reference.

Please note that relegating all ORCA citations to the supporting information does *not* help us.
SI sections are not indexed - citations you put there will not count into any citation statistics
But we need these citations in order to attract the funding resources that allow us to do what we are doing

Therefore, if you are a happy ORCA user, please consider citing a few of the papers listed below in the main body of your paper

In addition to the list printed below, the program has created the file frag.bibtex that contains the list in bibtex format
You can import this file easily into all common literature databanks and citation aid programs


List of essential papers. We consider these as the minimum necessary citations

  1. Neese,F.
     Software update: the ORCA program system, version 5.0
     WIRES Comput. Molec. Sci., 2022 12(1)e1606
     doi.org/10.1002/wcms.1606

List of papers to cite with high priority. The work reported in these papers was absolutely
necessary for this run to complete.
Our perspective: the developers of density functionals and basis sets usually get cited in chemistry papers
Good! But without the algorithms to do something with them, the functionals or basis sets would not do anything.
Hence, in our opinion, the algorithm design and method developments papers are equally worthy of getting cited

  1. Neese,F.
     The SHARK Integral Generation and Digestion System
     J. Comp. Chem., 2022  1-16
     doi.org/10.1002/jcc.26942

List of suggested additional citations. These are papers that are important in the 'surrounding' of 
of this run, or papers that preceded the highly important papers. If you like your results we are grateful for a citation.

  1. Neese,F.
     The ORCA program system
     WIRES Comput. Molec. Sci., 2012 2(1)73-78
     doi.org/10.1002/wcms.81
  2. Neese,F.
     Software update: the ORCA program system, version 4.0
     WIRES Comput. Molec. Sci., 2018 8(1)1-6
     doi.org/10.1002/wcms.1327
  3. Neese,F.; Wennmohs,F.; Becker,U.; Riplinger,C.
     The ORCA quantum chemistry program package
     J. Chem. Phys., 2020 152 Art. No. L224108
     doi.org/10.1063/5.0004608

List of optional additional citations

  1. Neese,F.
     Approximate second-order SCF convergence for spin unrestricted wavefunctions
     Chem. Phys. Lett., 2000 325(1-3)93-98
     doi.org/10.1016/s0009-2614(00)00662-x

Timings for individual modules:

Sum of individual times          ...        3.662 sec (=   0.061 min)
Startup calculation              ...        0.501 sec (=   0.008 min)  13.7 %
SCF iterations                   ...        2.462 sec (=   0.041 min)  67.2 %
Property calculations            ...        0.051 sec (=   0.001 min)   1.4 %
SCF Gradient evaluation          ...        0.648 sec (=   0.011 min)  17.7 %
                             ****ORCA TERMINATED NORMALLY****
TOTAL RUN TIME: 0 days 0 hours 0 minutes 3 seconds 874 msec
