
                                 *****************
                                 * O   R   C   A *
                                 *****************

                                            #,                                       
                                            ###                                      
                                            ####                                     
                                            #####                                    
                                            ######                                   
                                           ########,                                 
                                     ,,################,,,,,                         
                               ,,#################################,,                 
                          ,,##########################################,,             
                       ,#########################################, ''#####,          
                    ,#############################################,,   '####,        
                  ,##################################################,,,,####,       
                ,###########''''           ''''###############################       
              ,#####''   ,,,,##########,,,,          '''####'''          '####       
            ,##' ,,,,###########################,,,                        '##       
           ' ,,###''''                  '''############,,,                           
         ,,##''                                '''############,,,,        ,,,,,,###''
      ,#''                                            '''#######################'''  
     '                                                          ''''####''''         
             ,#######,   #######,   ,#######,      ##                                
            ,#'     '#,  ##    ##  ,#'     '#,    #''#        ,####,   ,####,        
            ##       ##  ##   ,#'  ##            #'  '#       #'       #'  '#        
            ##       ##  #######   ##           ,######,      #####,   #    #        
            '#,     ,#'  ##    ##  '#,     ,#' ,#      #,     #,   #   #,  ,#        
             '#######'   ##     ##  '#######'  #'      '#     '####' # '####'        



                #########################################################
                #                        -***-                          #
                #          Department of theory and spectroscopy        #
                #                                                       #
                #                      Frank Neese                      #
                #                                                       #
                #     Directorship, Architecture, Infrastructure        #
                #                    SHARK, DRIVERS                     #
                #        Core code/Algorithms in most modules           #
                #                                                       #
                #        Max Planck Institute fuer Kohlenforschung      #
                #                Kaiser Wilhelm Platz 1                 #
                #                 D-45470 Muelheim/Ruhr                 #
                #                      Germany                          #
                #                                                       #
                #                  All rights reserved                  #
                #                        -***-                          #
                #########################################################


                         Program Version 6.0.1  -  RELEASE   -


 With contributions from (in alphabetic order):
[Max-Planck-Institut fuer Kohlenforschung]                               
  Daniel Aravena         : Magnetic Suceptibility                        
  Michael Atanasov       : Ab Initio Ligand Field Theory (pilot matlab implementation)
  Alexander A. Auer      : GIAO ZORA, VPT2 properties, NMR spectrum      
  Ute Becker             : All parallelization in ORCA, NUMFREQ, NUMCALC 
  Giovanni Bistoni       : ED, misc. LED, open-shell LED, HFLD           
  Martin Brehm           : Molecular dynamics                            
  Dmytro Bykov           : pre 5.0 version of the SCF Hessian            
  Marcos Casanova-Páez   : Triplet and SCS-CIS(D). UHF-(DLPNO)-IP/EA/STEOM-CCSD. UHF-CVS-IP/STEOM-CCSD   
  Vijay G. Chilkuri      : MRCI spin determinant printing, contributions to CSF-ICE 
  Pauline Colinet        : FMM embedding                                 
  Dipayan Datta          : RHF DLPNO-CCSD density                        
  Achintya Kumar Dutta   : EOM-CC, STEOM-CC                              
  Nicolas Foglia         : Exact transition moments, OPA infrastructure, MCD improvements    
  Dmitry Ganyushin       : Spin-Orbit,Spin-Spin,Magnetic field MRCI      
  Miquel Garcia-Rates    : C-PCM and meta-GGA Hessian, CCSD/C-PCM, Gaussian charge scheme 
  Tiago L. C. Gouveia    : GS-ROHF, GS-ROCIS                             
  Yang Guo               : DLPNO-NEVPT2, F12-NEVPT2, CIM, IAO-localization        
  Andreas Hansen         : Spin unrestricted coupled pair/coupled cluster methods 
  Ingolf Harden          : AUTO-CI MPn and infrastructure                
  Benjamin Helmich-Paris : MC-RPA, TRAH-(SCF,CASSCF), AVAS, COSX integrals, SCF dyn. polar. 
  Lee Huntington         : MR-EOM, pCC                                   
  Robert Izsak           : Overlap fitted RIJCOSX, COSX-SCS-MP3, EOM     
  Riya Kayal             : Wick's Theorem for AUTO-CI, AUTO-CI UHF-CCSDT 
  Emily Kempfer          : AUTO-CI, RHF CISDT and CCSDT                  
  Christian Kollmar      : KDIIS, OOCD, Brueckner-CCSD(T), CCSD density, CASPT2, CASPT2-K, improved NEVPT2 
  Axel Koslowski         : Symmetry handling                             
  Simone Kossmann        : meta-GGA functionals, TD-DFT gradient, OOMP2, (MP2 Hessian; deprecated post 5.0) 
  Lucas Lang             : DCDCAS                                        
  Marvin Lechner         : AUTO-CI (C++ implementation), FIC-MRCC        
  Spencer Leger          : CASSCF response                               
  Dagmar Lenk            : GEPOL surface, SMD, ORCA-2-JSON               
  Dimitrios Liakos       : Extrapolation schemes; Compound Job, initial MDCI parallelization 
  Dimitrios Manganas     : Further ROCIS development; embedding schemes. LFT, Crystal Embedding 
  Dimitrios Pantazis     : SARC Basis sets                               
  Anastasios Papadopoulos: AUTO-CI, single reference methods and gradients 
  Taras Petrenko         : pre 6.0 DFT Hessian and TD-DFT gradient, (ASA, deprecated), ECA, 1-Electron XAS/XES, NRVS 
  Peter Pinski           : DLPNO-MP2, DLPNO-MP2 Gradient                 
  Christoph Reimann      : Effective Core Potentials                     
  Marius Retegan         : Local ZFS, SOC                                
  Christoph Riplinger    : Optimizer, TS searches, QM/MM, DLPNO-CCSD(T), (RO)-DLPNO pert. Triples 
  Michael Roemelt        : Original ROCIS implementation                 
  Masaaki Saitow         : Open-shell DLPNO-CCSD energy and density      
  Barbara Sandhoefer     : DKH picture change effects                    
  Kantharuban Sivalingam : CASSCF convergence/infrastructure, NEVPT2 and variants, FIC-MRCI 
  Bernardo de Souza      : ESD, SOC TD-DFT                               
  Georgi L. Stoychev     : AutoAux, RI-MP2 NMR, DLPNO-MP2 response, X2C  
  Van Anh Tran           : RI-MP2 g-tensors                              
  Willem Van den Heuvel  : Paramagnetic NMR                              
  Zikuan Wang            : NOTCH, Electric field optimization            
  Frank Wennmohs         : Technical directorship and infrastructure     
  Hang Xu                : AUTO-CI-Response properties                   
                                                                         
[FACCTs GmbH]                                                            
  Markus Bursch, Miquel Garcia-Rates, Christoph Riplinger, Bernardo de Souza, Georgi L. Stoychev 
                                                                 
  APM, Basis sets (HGBS, AHGBS, def-TZVP (Ac-Lr), def2-XVPD (La-Lu)), CI-OPT, improved COSX, DLPNO-Multilevel,           
  DOCKER, DRACO, updates on ESD, GOAT, IRC, LR-CPCM, MBIS, meta-GGA TD-DFT gradient, ML-optimized integration grids, 
  MM, NACMEs, nearIR, NEB, NEB-TS, NL-DFT gradient (VV10), 2- and 3-layer-ONIOM, interface openCOSMO-RS, QMMM,   
  Crystal-QMMM, SF, symmetry and pop. for TD-DFT, r2SCAN hybrids, SOLVATOR                                   
                                                                         
[Other institutions]                                                     
  V. Asgeirsson          : NEB                                           
  Christoph Bannwarth    : sTDA-DFT, sTD-DFT, PBEh-3c, B97-3c, D3        
  Sebastian Ehlert       : rSCAN, r2SCAN, r2SCAN-3c, D4, dhf basis sets  
  Marvin Friede          : D4 for Fr, Ra, Ac-Lr                          
  Lars Goerigk           : TD-DFT with DH, B97 family of functionals     
  Stefan Grimme          : VdW corrections, initial TS optimization, DFT functionals, gCP, sTDA/sTD-DF 
  Waldemar Hujo          : DFT-NL                                        
  H. Jonsson             : NEB                                           
  Holger Kruse           : gCP                                           
  Marcel Mueller         : wB97X-3c, vDZP basis set                      
  Hagen Neugebauer       : wr2SCAN                                       
  Tobias Risthaus        : range-separated hybrid DFT                    
  Lukas Wittmann         : regularized MP2, r2SCAN double-hybrids, wr2SCAN        
                                                                         
We gratefully acknowledge several colleagues who have allowed us to      
interface, adapt or use parts of their codes:                            
  Ed Valeev, F. Pavosevic, A. Kumar             : LibInt (2-el integral package), F12 methods 
  Garnet Chan, S. Sharma, J. Yang, R. Olivares  : DMRG                   
  Ulf Ekstrom                                   : XCFun DFT Library      
  Mihaly Kallay                                 : mrcc  (arbitrary order and MRCC methods)
  Frank Weinhold                                : gennbo (NPA and NBO analysis)           
  Simon Mueller                                 : openCOSMO-RS                            
  Christopher J. Cramer and Donald G. Truhlar   : smd solvation model                     
  S Lehtola, MJT Oliveira, MAL Marques          : LibXC Library                           
  Liviu Ungur et al                             : ANISO software                          


 Your calculation uses the libint2 library for the computation of 2-el integrals
 For citations please refer to: http://libint.valeyev.net

 Your ORCA version has been built with support for libXC version: 6.2.2
 For citations please refer to: https://libxc.gitlab.io

 This ORCA versions uses:
   CBLAS   interface :  Fast vector & matrix operations
   LAPACKE interface :  Fast linear algebra routines
   SCALAPACK package :  Parallel linear algebra routines
   Shared memory     :  Shared parallel matrices
   BLAS/LAPACK       :  OpenBLAS 0.3.27  USE64BITINT DYNAMIC_ARCH NO_AFFINITY SkylakeX SINGLE_THREADED
        Core in use  :  SkylakeX
   Copyright (c) 2011-2014, The OpenBLAS Project


================================================================================

----- Orbital basis set information -----
Your calculation utilizes the basis: 6-31G*
   H-He, Li-Ne : W. J. Hehre, R. Ditchfield and J.A. Pople, J. Chem. Phys. 56, 2257 (1972).
                 Note: He and Ne are unpublished basis sets taken from the Gaussian program.
                 Note: Li and B from J. D. Dill and J. A. Pople, J. Chem. Phys. 62, 2921 (1975).
   Na - Ar     : M. M. Francl, W. J. Pietro, W. J. Hehre, J. S. Binkley, M. S. Gordon, 
                 D. J. DeFrees and J. A. Pople, J. Chem. Phys. 77, 3654 (1982).
   K - Zn      : V. A. Rassolov, J. A. Pople, M. A. Ratner, and T. L. Windus, J. Chem. Phys. 109, 1223 (1998).

================================================================================
                                        WARNINGS
                       Please study these warnings very carefully!
================================================================================


================================================================================
                                       INPUT FILE
================================================================================
NAME = frag.inp
|  1> !HF 6-31G* EnGrad
|  2> %pal nprocs 1 end
|  3> *xyz 0 1
|  4> O 20.35232000 49.63574000 40.01023000
|  5> H 20.79050000 48.92392000 40.26012000
|  6> H 19.54326000 49.49202000 40.30334000
|  7> O 21.78987000 47.25010000 37.48256000
|  8> H 21.67133000 47.22017000 38.34638000
|  9> H 21.14108000 47.76263000 37.20411000
| 10> O 19.10373000 45.58535000 40.48424000
| 11> H 18.38270000 45.25544000 40.12036000
| 12> H 18.82331000 45.89664000 41.24949000
| 13> O 21.99613000 48.36911000 43.54199000
| 14> H 21.97702000 49.24128000 43.53308000
| 15> H 21.46413000 48.14557000 42.88766000
| 16> *
| 17> 
| 18>                          ****END OF INPUT****
================================================================================

                     *******************************
                     * Energy+Gradient Calculation *
                     *******************************

---------------------------------
CARTESIAN COORDINATES (ANGSTROEM)
---------------------------------
  O     20.352320   49.635740   40.010230
  H     20.790500   48.923920   40.260120
  H     19.543260   49.492020   40.303340
  O     21.789870   47.250100   37.482560
  H     21.671330   47.220170   38.346380
  H     21.141080   47.762630   37.204110
  O     19.103730   45.585350   40.484240
  H     18.382700   45.255440   40.120360
  H     18.823310   45.896640   41.249490
  O     21.996130   48.369110   43.541990
  H     21.977020   49.241280   43.533080
  H     21.464130   48.145570   42.887660

----------------------------
CARTESIAN COORDINATES (A.U.)
----------------------------
  NO LB      ZA    FRAG     MASS         X           Y           Z
   0 O     8.0000    0    15.999   38.460311   93.797955   75.608377
   1 H     1.0000    0     1.008   39.288351   92.452810   76.080601
   2 H     1.0000    0     1.008   36.931409   93.526364   76.162275
   3 O     8.0000    0    15.999   41.176887   89.289749   70.831773
   4 H     1.0000    0     1.008   40.952879   89.233189   72.464156
   5 H     1.0000    0     1.008   39.950851   90.258290   70.305579
   6 O     8.0000    0    15.999   36.100818   86.143827   76.504126
   7 H     1.0000    0     1.008   34.738269   85.520388   75.816493
   8 H     1.0000    0     1.008   35.570901   86.732080   77.950239
   9 O     8.0000    0    15.999   41.566662   91.404371   82.282436
  10 H     1.0000    0     1.008   41.530549   93.052534   82.265599
  11 H     1.0000    0     1.008   40.561327   90.981942   81.045932

--------------------------------
INTERNAL COORDINATES (ANGSTROEM)
--------------------------------
 O      0   0   0     0.000000000000     0.00000000     0.00000000
 H      1   0   0     0.872430190273     0.00000000     0.00000000
 H      1   2   0     0.872437386922   103.59919813     0.00000000
 O      2   1   3     3.393413229022   108.41619438   115.19435551
 H      4   2   1     0.872429096775    33.53678511   194.84682685
 H      4   2   1     0.872439033687    75.66802933   340.40737457
 O      5   4   2     3.719630569290   132.68352841   105.44395767
 H      7   5   4     0.872429666735   119.79994743   348.29022196
 H      7   5   4     0.872435901944   124.69375762   211.73664810
 O      2   1   3     3.540060526305   124.36490474   281.07896779
 H     10   2   1     0.872424832923    80.00248129   334.15276262
 H     10   2   1     0.872434456277    30.36512997   114.79492195

---------------------------
INTERNAL COORDINATES (A.U.)
---------------------------
 O      0   0   0     0.000000000000     0.00000000     0.00000000
 H      1   0   0     1.648654130581     0.00000000     0.00000000
 H      1   2   0     1.648667730277   103.59919813     0.00000000
 O      2   1   3     6.412621662077   108.41619438   115.19435551
 H      4   2   1     1.648652064169    33.53678511   194.84682685
 H      4   2   1     1.648670842211    75.66802933   340.40737457
 O      5   4   2     7.029083095321   132.68352841   105.44395767
 H      7   5   4     1.648653141238   119.79994743   348.29022196
 H      7   5   4     1.648664924074   124.69375762   211.73664810
 O      2   1   3     6.689744892221   124.36490474   281.07896779
 H     10   2   1     1.648644006656    80.00248129   334.15276262
 H     10   2   1     1.648662192161    30.36512997   114.79492195

---------------------
BASIS SET INFORMATION
---------------------
There are 2 groups of distinct atoms

 Group   1 Type O   : 10s4p1d contracted to 3s2p1d pattern {631/31/1}
 Group   2 Type H   : 4s contracted to 2s pattern {31}

Atom   0O    basis set group =>   1
Atom   1H    basis set group =>   2
Atom   2H    basis set group =>   2
Atom   3O    basis set group =>   1
Atom   4H    basis set group =>   2
Atom   5H    basis set group =>   2
Atom   6O    basis set group =>   1
Atom   7H    basis set group =>   2
Atom   8H    basis set group =>   2
Atom   9O    basis set group =>   1
Atom  10H    basis set group =>   2
Atom  11H    basis set group =>   2
------------------------------------------------------------------------------
                             ORCA STARTUP CALCULATIONS
------------------------------------------------------------------------------
------------------------------------------------------------------------------
                   ___                                                        
                  /   \      - P O W E R E D   B Y -                         
                 /     \                                                     
                 |  |  |   _    _      __       _____    __    __             
                 |  |  |  | |  | |    /  \     |  _  \  |  |  /  |          
                  \  \/   | |  | |   /    \    | | | |  |  | /  /          
                 / \  \   | |__| |  /  /\  \   | |_| |  |  |/  /          
                |  |  |   |  __  | /  /__\  \  |    /   |      \           
                |  |  |   | |  | | |   __   |  |    \   |  |\   \          
                \     /   | |  | | |  |  |  |  | |\  \  |  | \   \       
                 \___/    |_|  |_| |__|  |__|  |_| \__\ |__|  \__/        
                                                                              
                      - O R C A' S   B I G   F R I E N D -                    
                                      &                                       
                       - I N T E G R A L  F E E D E R -                       
                                                                              
 v1 FN, 2020, v2 2021, v3 2022-2024                                           
------------------------------------------------------------------------------


----------------------
SHARK INTEGRAL PACKAGE
----------------------

Number of atoms                             ...     12
Number of basis functions                   ...     72
Number of shells                            ...     40
Maximum angular momentum                    ...      2
Integral batch strategy                     ... SHARK/LIBINT Hybrid
RI-J (if used) integral strategy            ... SPLIT-RIJ (Revised 2003 algorithm where possible)
Printlevel                                  ...      1
Contraction scheme used                     ... SEGMENTED contraction
Prescreening option                         ... SCHWARTZ
   Thresh                                   ... 2.500e-11
   Tcut                                     ... 2.500e-12
   Tpresel                                  ... 2.500e-12 
Coulomb Range Separation                    ... NOT USED
Exchange Range Separation                   ... NOT USED
Multipole approximations                    ... NOT USED
Finite Nucleus Model                        ... NOT USED
CABS basis                                  ... NOT available
Auxiliary Coulomb fitting basis             ... NOT available
Auxiliary J/K fitting basis                 ... NOT available
Auxiliary Correlation fitting basis         ... NOT available
Auxiliary 'external' fitting basis          ... NOT available

Checking pre-screening integrals            ... done (  0.0 sec) Dimension = 40
Check shell pair data                       ... done (  0.0 sec)
Shell pair information
Shell pair cut-off parameter TPreSel        ...   2.5e-12
Total number of shell pairs                 ...       820
Shell pairs after pre-screening             ...       679
Total number of primitive shell pairs       ...      4386
Primitive shell pairs kept                  ...      2268
          la=0 lb=0:    339 shell pairs
          la=1 lb=0:    186 shell pairs
          la=1 lb=1:     31 shell pairs
          la=2 lb=0:     87 shell pairs
          la=2 lb=1:     28 shell pairs
          la=2 lb=2:      8 shell pairs

Calculating one electron integrals          ... done (  0.0 sec)
Calculating Nuclear repulsion               ... done (  0.0 sec) ENN=    112.121510533413 Eh

Diagonalization of the overlap matrix:
Smallest eigenvalue                        ... 4.164e-02
Time for diagonalization                   ...    0.001 sec
Threshold for overlap eigenvalues          ... 1.000e-07
Number of eigenvalues below threshold      ... 0
Time for construction of square roots      ...    0.002 sec
Total time needed                          ...    0.004 sec

-------------------
DFT GRID GENERATION
-------------------

General Integration Accuracy     IntAcc      ... 4.388
Radial Grid Type                 RadialGrid  ... OptM3 with GC (2021)
Angular Grid (max. ang.)         AngularGrid ... 4 (Lebedev-302)
Angular grid pruning method      GridPruning ... 4 (adaptive)
Weight generation scheme         WeightScheme... mBecke (2022)
Basis function cutoff            BFCut       ... 1.0000e-11
Integration weight cutoff        WCut        ... 1.0000e-14
Partially contracted basis set               ... off
Rotationally invariant grid construction     ... off
Angular grids for H and He will be reduced by one unit

Total number of grid points                  ...    50863
Total number of batches                      ...      802
Average number of points per batch           ...       63
Average number of grid points per atom       ...     4239
Initializing property integral containers    ... done (  0.0 sec)

SHARK setup successfully completed in   0.4 seconds

Maximum memory used throughout the entire STARTUP-calculation: 17.3 MB
-------------------------------------------------------------------------------
                                 ORCA GUESS
                   Start orbitals & Density for SCF / CASSCF
-------------------------------------------------------------------------------

------------
SCF SETTINGS
------------
Hamiltonian:
 Ab initio Hamiltonian  Method          .... Hartree-Fock(GTOs)


General Settings:
 Integral files         IntName         .... frag
 Hartree-Fock type      HFTyp           .... RHF
 Total Charge           Charge          ....    0
 Multiplicity           Mult            ....    1
 Number of Electrons    NEL             ....   40
 Basis Dimension        Dim             ....   72
 Nuclear Repulsion      ENuc            ....    112.1215105334 Eh

Convergence Acceleration:
 AO-DIIS                CNVDIIS         .... on
   Start iteration      DIISMaxIt       ....    12
   Startup error        DIISStart       ....  0.200000
   # of expansion vecs  DIISMaxEq       ....     5
   Bias factor          DIISBfac        ....   1.050
   Max. coefficient     DIISMaxC        ....  10.000
 MO-DIIS                CNVKDIIS        .... off
 Trust-Rad. Augm. Hess. CNVTRAH         .... auto
   Auto Start mean grad. ratio tolernc. ....  1.125000
   Auto Start start iteration           ....    50
   Auto Start num. interpolation iter.  ....    10
   Max. Number of Micro iterations      ....    24
   Max. Number of Macro iterations      .... Maxiter - #DIIS iter
   Number of Davidson start vectors     ....     2
   Converg. threshold    (grad. norm)   ....   1.000e-05
   Grad. Scal. Fac. for Micro threshold ....   0.100
   Minimum threshold for Micro iter.    ....   1.000e-02
   NR start threshold (gradient norm)   ....   1.000e-04
   Initial trust radius                 ....   0.400
   Minimum AH scaling param. (alpha)    ....   1.000
   Maximum AH scaling param. (alpha)    .... 1000.000
   Quad. conv. algorithm                .... NR
   White noise on init. David. guess    .... on
   Maximum white noise                  ....   0.010
   Pseudo random numbers                .... off
   Inactive MOs                         .... canonical
   Orbital update algorithm             .... Taylor
   Preconditioner                       .... Diag
   Full preconditioner red. dimension   ....   250
 SOSCF                  CNVSOSCF        .... on
   Start iteration      SOSCFMaxIt      ....   150
   Startup grad/error   SOSCFStart      ....  0.003300
   Hessian update       SOSCFHessUp     .... L-BFGS
 Level Shifting         CNVShift        .... on
   Level shift para.    LevelShift      ....    0.2500
   Turn off err/grad.   ShiftErr        ....    0.0010
 Zerner damping         CNVZerner       .... off
 Static damping         CNVDamp         .... on
   Fraction old density DampFac         ....    0.7000
   Max. Damping (<1)    DampMax         ....    0.9800
   Min. Damping (>=0)   DampMin         ....    0.0000
   Turn off err/grad.   DampErr         ....    0.1000

SCF Procedure:
 Maximum # iterations   MaxIter         ....   125
 SCF integral mode      SCFMode         .... Direct
   Integral package                     .... SHARK and LIBINT hybrid scheme
 Reset frequency        DirectResetFreq ....    20
 Integral Threshold     Thresh          ....  2.500e-11 Eh
 Primitive CutOff       TCut            ....  2.500e-12 Eh

Convergence Tolerance:
 Convergence Check Mode ConvCheckMode   .... Total+1el-Energy
 Convergence forced     ConvForced      .... 0
 Energy Change          TolE            ....  1.000e-08 Eh
 1-El. energy change                    ....  1.000e-05 Eh
 Orbital Gradient       TolG            ....  1.000e-05
 Orbital Rotation angle TolX            ....  1.000e-05
 DIIS Error             TolErr          ....  5.000e-07

------------------------------
INITIAL GUESS: MODEL POTENTIAL
------------------------------
Loading Hartree-Fock densities                     ... done
Calculating cut-offs                               ... done
Initializing the effective Hamiltonian             ... done
Setting up the integral package (SHARK)            ... done
Starting the Coulomb interaction                   ... done (   0.0 sec)
Making the grid                                    ... done (   0.1 sec)
Mapping shells                                     ... done
Starting the XC term evaluation                    ... done (   0.0 sec)
Transforming the Hamiltonian                       ... done (   0.0 sec)
Diagonalizing the Hamiltonian                      ... done (   0.0 sec)
Back transforming the eigenvectors                 ... done (   0.0 sec)
Now organizing SCF variables                       ... done
                      ------------------
                      INITIAL GUESS DONE (   0.1 sec)
                      ------------------
             **** ENERGY FILE WAS UPDATED (frag.en.tmp) ****
Finished Guess after   0.2 sec
Maximum memory used throughout the entire GUESS-calculation: 7.3 MB

-------------------------------------------------------------------------------------------
                                      ORCA LEAN-SCF
                              memory conserving SCF solver
-------------------------------------------------------------------------------------------

----------------------------------------D-I-I-S--------------------------------------------
Iteration    Energy (Eh)           Delta-E    RMSDP     MaxDP     DIISErr   Damp  Time(sec)
-------------------------------------------------------------------------------------------
               ***  Starting incremental Fock matrix formation  ***
    1    -303.5611873607851408     0.00e+00  6.28e-03  7.29e-02  3.32e-01  0.700   0.2
    2    -303.7241783460370925    -1.63e-01  4.27e-03  4.99e-02  2.01e-01  0.700   0.1
                               ***Turning on AO-DIIS***
    3    -303.8122000646365564    -8.80e-02  1.67e-03  2.15e-02  1.12e-01  0.700   0.1
    4    -303.8653554356901623    -5.32e-02  1.01e-03  1.37e-02  7.61e-02  0.700   0.1
    5    -303.9004894419872471    -3.51e-02  2.34e-03  3.25e-02  5.41e-02  0.000   0.1
    6    -303.9788568635979686    -7.84e-02  1.65e-04  1.71e-03  3.38e-03  0.000   0.2
                              *** Initializing SOSCF ***
---------------------------------------S-O-S-C-F--------------------------------------
Iteration    Energy (Eh)           Delta-E    RMSDP     MaxDP     MaxGrad    Time(sec)
--------------------------------------------------------------------------------------
    7    -303.9789201119525046    -6.32e-05  1.02e-04  7.55e-04  1.14e-03     0.1
               *** Restarting incremental Fock matrix formation ***
    8    -303.9789322557321043    -1.21e-05  4.63e-05  4.87e-04  2.53e-04     0.1
    9    -303.9789335381387900    -1.28e-06  2.92e-05  2.32e-04  9.11e-05     0.1
   10    -303.9789337768086739    -2.39e-07  3.90e-06  4.45e-05  3.74e-05     0.1
   11    -303.9789337900931514    -1.33e-08  8.79e-07  9.43e-06  4.90e-06     0.1
   12    -303.9789337904473427    -3.54e-10  1.79e-07  1.97e-06  9.71e-07     0.1
                 **** Energy Check signals convergence ****

               *****************************************************
               *                     SUCCESS                       *
               *           SCF CONVERGED AFTER  12 CYCLES          *
               *****************************************************

             **** ENERGY FILE WAS UPDATED (frag.en.tmp) ****

----------------
TOTAL SCF ENERGY
----------------

Total Energy       :       -303.97893379044734 Eh           -8271.68731 eV

Components:
Nuclear Repulsion  :        112.12151053341313 Eh            3050.98141 eV
Electronic Energy  :       -416.10044432386047 Eh          -11322.66872 eV
One Electron Energy:       -641.50651587890638 Eh          -17456.27976 eV
Two Electron Energy:        225.40607155504591 Eh            6133.61103 eV

Virial components:
Potential Energy   :       -609.49856286096031 Eh          -16585.29908 eV
Kinetic Energy     :        305.51962907051296 Eh            8313.61176 eV
Virial Ratio       :          1.99495713160967

---------------
SCF CONVERGENCE
---------------

  Last Energy change         ...    3.5419e-10  Tolerance :   1.0000e-08
  Last MAX-Density change    ...    1.9679e-06  Tolerance :   1.0000e-07
  Last RMS-Density change    ...    1.7949e-07  Tolerance :   5.0000e-09
  Last DIIS Error            ...    1.1374e-03  Tolerance :   5.0000e-07
  Last Orbital Gradient      ...    9.7144e-07  Tolerance :   1.0000e-05
  Last Orbital Rotation      ...    1.0324e-06  Tolerance :   1.0000e-05


----------------
ORBITAL ENERGIES
----------------

  NO   OCC          E(Eh)            E(eV) 
   0   2.0000     -20.561675      -559.5116 
   1   2.0000     -20.561219      -559.4992 
   2   2.0000     -20.547689      -559.1310 
   3   2.0000     -20.529494      -558.6359 
   4   2.0000      -1.414925       -38.5021 
   5   2.0000      -1.414494       -38.4903 
   6   2.0000      -1.401274       -38.1306 
   7   2.0000      -1.382868       -37.6298 
   8   2.0000      -0.777405       -21.1543 
   9   2.0000      -0.777183       -21.1482 
  10   2.0000      -0.763882       -20.7863 
  11   2.0000      -0.745699       -20.2915 
  12   2.0000      -0.612586       -16.6693 
  13   2.0000      -0.611059       -16.6277 
  14   2.0000      -0.597777       -16.2663 
  15   2.0000      -0.580574       -15.7982 
  16   2.0000      -0.528667       -14.3858 
  17   2.0000      -0.527824       -14.3628 
  18   2.0000      -0.514459       -13.9991 
  19   2.0000      -0.496436       -13.5087 
  20   0.0000       0.150622         4.0986 
  21   0.0000       0.218013         5.9324 
  22   0.0000       0.233229         6.3465 
  23   0.0000       0.263712         7.1760 
  24   0.0000       0.291884         7.9426 
  25   0.0000       0.306339         8.3359 
  26   0.0000       0.332008         9.0344 
  27   0.0000       0.413516        11.2524 
  28   0.0000       1.031401        28.0658 
  29   0.0000       1.034890        28.1608 
  30   0.0000       1.046411        28.4743 
*Only the first 10 virtual orbitals were printed.

                    ********************************
                    * MULLIKEN POPULATION ANALYSIS *
                    ********************************

-----------------------
MULLIKEN ATOMIC CHARGES
-----------------------
   0 O :   -0.887974
   1 H :    0.444156
   2 H :    0.444921
   3 O :   -0.890084
   4 H :    0.443232
   5 H :    0.445416
   6 O :   -0.892411
   7 H :    0.450671
   8 H :    0.442669
   9 O :   -0.884519
  10 H :    0.447252
  11 H :    0.436671
Sum of atomic charges:   -0.0000000

--------------------------------
MULLIKEN REDUCED ORBITAL CHARGES
--------------------------------
  0 O s       :     3.850087  s :     3.850087
      pz      :     1.909982  p :     5.004050
      px      :     1.417361
      py      :     1.676707
      dz2     :     0.003583  d :     0.033836
      dxz     :     0.006343
      dyz     :     0.005837
      dx2y2   :     0.009876
      dxy     :     0.008196

  1 H s       :     0.555844  s :     0.555844

  2 H s       :     0.555079  s :     0.555079

  3 O s       :     3.846651  s :     3.846651
      pz      :     1.446016  p :     5.010049
      px      :     1.734467
      py      :     1.829566
      dz2     :     0.015172  d :     0.033384
      dxz     :     0.004334
      dyz     :     0.001214
      dx2y2   :     0.002652
      dxy     :     0.010012

  4 H s       :     0.556768  s :     0.556768

  5 H s       :     0.554584  s :     0.554584

  6 O s       :     3.845516  s :     3.845516
      pz      :     1.507670  p :     5.013587
      px      :     1.651407
      py      :     1.854510
      dz2     :     0.006723  d :     0.033307
      dxz     :     0.010774
      dyz     :     0.002654
      dx2y2   :     0.006405
      dxy     :     0.006751

  7 H s       :     0.549329  s :     0.549329

  8 H s       :     0.557331  s :     0.557331

  9 O s       :     3.847506  s :     3.847506
      pz      :     1.723459  p :     5.003320
      px      :     1.816424
      py      :     1.463437
      dz2     :     0.007317  d :     0.033693
      dxz     :     0.010549
      dyz     :     0.001764
      dx2y2   :     0.012354
      dxy     :     0.001708

 10 H s       :     0.552748  s :     0.552748

 11 H s       :     0.563329  s :     0.563329



                     *******************************
                     * LOEWDIN POPULATION ANALYSIS *
                     *******************************

----------------------
LOEWDIN ATOMIC CHARGES
----------------------
   0 O :   -0.622670
   1 H :    0.309344
   2 H :    0.314148
   3 O :   -0.625242
   4 H :    0.310239
   5 H :    0.313917
   6 O :   -0.628314
   7 H :    0.317021
   8 H :    0.311975
   9 O :   -0.622867
  10 H :    0.315201
  11 H :    0.307247

-------------------------------
LOEWDIN REDUCED ORBITAL CHARGES
-------------------------------
  0 O s       :     3.555932  s :     3.555932
      pz      :     1.914532  p :     5.024043
      px      :     1.422319
      py      :     1.687191
      dz2     :     0.004248  d :     0.042696
      dxz     :     0.008009
      dyz     :     0.006267
      dx2y2   :     0.013137
      dxy     :     0.011035

  1 H s       :     0.690656  s :     0.690656

  2 H s       :     0.685852  s :     0.685852

  3 O s       :     3.554461  s :     3.554461
      pz      :     1.452914  p :     5.028606
      px      :     1.742529
      py      :     1.833163
      dz2     :     0.020201  d :     0.042176
      dxz     :     0.005496
      dyz     :     0.001674
      dx2y2   :     0.002746
      dxy     :     0.012060

  4 H s       :     0.689761  s :     0.689761

  5 H s       :     0.686083  s :     0.686083

  6 O s       :     3.555017  s :     3.555017
      pz      :     1.512659  p :     5.031317
      px      :     1.663680
      py      :     1.854978
      dz2     :     0.009077  d :     0.041979
      dxz     :     0.013796
      dyz     :     0.003761
      dx2y2   :     0.007078
      dxy     :     0.008266

  7 H s       :     0.682979  s :     0.682979

  8 H s       :     0.688025  s :     0.688025

  9 O s       :     3.555788  s :     3.555788
      pz      :     1.731359  p :     5.024443
      px      :     1.822351
      py      :     1.470733
      dz2     :     0.009197  d :     0.042636
      dxz     :     0.012935
      dyz     :     0.002332
      dx2y2   :     0.016075
      dxy     :     0.002097

 10 H s       :     0.684799  s :     0.684799

 11 H s       :     0.692753  s :     0.692753



                      *****************************
                      * MAYER POPULATION ANALYSIS *
                      *****************************

  NA   - Mulliken gross atomic population
  ZA   - Total nuclear charge
  QA   - Mulliken gross atomic charge
  VA   - Mayer's total valence
  BVA  - Mayer's bonded valence
  FA   - Mayer's free valence

  ATOM       NA         ZA         QA         VA         BVA        FA
  0 O      8.8880     8.0000    -0.8880     1.5540     1.5540    -0.0000
  1 H      0.5558     1.0000     0.4442     0.7684     0.7684    -0.0000
  2 H      0.5551     1.0000     0.4449     0.7668     0.7668     0.0000
  3 O      8.8901     8.0000    -0.8901     1.5515     1.5515    -0.0000
  4 H      0.5568     1.0000     0.4432     0.7698     0.7698    -0.0000
  5 H      0.5546     1.0000     0.4454     0.7670     0.7670    -0.0000
  6 O      8.8924     8.0000    -0.8924     1.5515     1.5515    -0.0000
  7 H      0.5493     1.0000     0.4507     0.7626     0.7626    -0.0000
  8 H      0.5573     1.0000     0.4427     0.7679     0.7679    -0.0000
  9 O      8.8845     8.0000    -0.8845     1.5552     1.5552    -0.0000
 10 H      0.5527     1.0000     0.4473     0.7648     0.7648     0.0000
 11 H      0.5633     1.0000     0.4367     0.7735     0.7735    -0.0000

  Mayer bond orders larger than 0.100000
B(  0-O ,  1-H ) :   0.7707 B(  0-O ,  2-H ) :   0.7760 B(  3-O ,  4-H ) :   0.7741 
B(  3-O ,  5-H ) :   0.7755 B(  6-O ,  7-H ) :   0.7722 B(  6-O ,  8-H ) :   0.7774 
B(  9-O , 10-H ) :   0.7744 B(  9-O , 11-H ) :   0.7793 

-------
TIMINGS
-------

Total SCF time: 0 days 0 hours 0 min 1 sec 

Total time                  ....       1.719 sec
Sum of individual times     ....       1.625 sec  ( 94.5%)

SCF preparation             ....       0.068 sec  (  3.9%)
Fock matrix formation       ....       1.249 sec  ( 72.7%)
  Startup                   ....       0.023 sec  (  1.9% of F)
  Coulomb+Exchange Fock     ....       1.138 sec  ( 91.1% of F)
Diagonalization             ....       0.000 sec  (  0.0%)
Density matrix formation    ....       0.087 sec  (  5.1%)
Total Energy calculation    ....       0.030 sec  (  1.7%)
Population analysis         ....       0.022 sec  (  1.3%)
Orbital Transformation      ....       0.012 sec  (  0.7%)
Orbital Orthonormalization  ....       0.000 sec  (  0.0%)
DIIS solution               ....       0.102 sec  (  5.9%)
SOSCF solution              ....       0.055 sec  (  3.2%)
Finished LeanSCF after   1.7 sec

Maximum memory used throughout the entire LEANSCF-calculation: 8.2 MB

-------------------------   --------------------
FINAL SINGLE POINT ENERGY      -303.978933790447
-------------------------   --------------------

------------------------------------------------------------------------------
                         ORCA SCF GRADIENT CALCULATION
------------------------------------------------------------------------------

Nuc. rep. gradient        (SHARK) ... done (  0.0 sec)
HCore & Overlap gradient  (SHARK) ... done (  0.0 sec)
Two-electron gradient     (SHARK) ... done (  0.4 sec)

------------------
CARTESIAN GRADIENT
------------------

   1   O   :   -0.043609310   -0.097230193    0.061122089
   2   H   :   -0.064707058    0.088669150   -0.027579567
   3   H   :    0.108204344    0.010285831   -0.033310020
   4   O   :   -0.089148310    0.056000179    0.067515754
   5   H   :    0.008769412    0.010193103   -0.111477589
   6   H   :    0.080832725   -0.066123284    0.044079057
   7   O   :   -0.116849908   -0.006699423    0.046138383
   8   H   :    0.088122892    0.046240794    0.055193377
   9   H   :    0.028417763   -0.040795230   -0.101761220
  10   O   :   -0.062129236    0.075499124   -0.075605789
  11   H   :   -0.004112416   -0.113628965   -0.006225564
  12   H   :    0.066209103    0.037588914    0.081911088

Difference to translation invariance:
           :   -0.0000000000   -0.0000000001   -0.0000000001

Difference to rotation invariance:
           :   -0.0000000566   -0.0000000317    0.0000000131

Norm of the Cartesian gradient     ...    0.4053126011
RMS gradient                       ...    0.0675521002
MAX gradient                       ...    0.1168499085

-------
TIMINGS
-------

Total SCF gradient time     ....        0.430 sec

Densities                   ....       0.000 sec  (  0.0%)
One electron gradient       ....       0.036 sec  (  8.4%)
Two electron gradient       ....       0.394 sec  ( 91.5%)

Maximum memory used throughout the entire SCFGRAD-calculation: 14.0 MB

------------------------------------------------------------------------------
                              ORCA PROPERTY CALCULATIONS
------------------------------------------------------------------------------

GBWName                                 ... frag.gbw
Number of atoms                         ...     12
Number of basis functions               ...     72
Max core memory                         ...   1024 MB

Electric properties:
Dipole moment                           ... YES
Quadrupole moment                       ...  NO
Static polarizability (Dipole/Dipole)   ...  NO
Static polarizability (Dipole/Quad.)    ...  NO
Static polarizability (Quad./Quad.)     ...  NO
Static polarizability (Velocity)        ...  NO

Atomic electric properties:
Dipole moment                           ...  NO
Quadrupole moment                       ...  NO
Static polarizability                   ...  NO

Choice of electric origin               ... Center of mass
Position of electric origin             ...    39.255041    90.165771    76.329583

General magnetic properties:
Magnetizability                         ...  NO

EPR properties:
g-Tensor (aka g-matrix)                 ...  NO
Zero-Field splitting spin-orbit         ...  NO
Zero-field splitting spin-spin          ...  NO
Hyperfine couplings                     ...  NO (   0 nuclei)
Quadrupole couplings                    ...  NO (   0 nuclei)
Contact density                         ...  NO (   0 nuclei)

NMR properties:
Chemical shifts                         ...  NO (   0 nuclei)
Spin-rotation constants                 ...  NO (   0 nuclei)
Spin-spin couplings                     ...  NO (   0 nuclei,    0 pairs)

Choice of magnetic origin               ... GIAO
Position of magnetic origin             ...     0.000000     0.000000     0.000000

Properties with geometric perturbations:
SCF Hessian                             ...  NO
IR spectrum                             ...  NO
VCD spectrum                            ...  NO
X-ray spectroscopy properties:
SCF XES/XAS/RIXS spectra                ...  NO


-------------
DIPOLE MOMENT
-------------

Method             : SCF
Type of density    : Electron Density
Multiplicity       :   1
Irrep              :   0
Energy             :  -303.9789337904473427 Eh
Relativity type    : 
Basis              : AO
                                X                 Y                 Z
Electronic contribution:      0.116643946      -0.011099605      -0.041639785
Nuclear contribution   :     -2.239691031       0.213974949       0.721240492
                        -----------------------------------------
Total Dipole Moment    :     -2.123047084       0.202875344       0.679600707
                        -----------------------------------------
Magnitude (a.u.)       :      2.238379871
Magnitude (Debye)      :      5.689509480



--------------------
Rotational spectrum 
--------------------
 
Rotational constants in cm-1:             0.068685             0.041268             0.032187 
Rotational constants in MHz :          2059.116085          1237.190409           964.945590 

Dipole components along the rotational axes: 
x,y,z [a.u.] :     0.428633    -1.164439     1.862982 
x,y,z [Debye]:     1.089498    -2.959768     4.735323 

 

Dipole moment calculation done in   0.0 sec 

Maximum memory used throughout the entire PROP-calculation: 2.6 MB

--------------------------------
SUGGESTED CITATIONS FOR THIS RUN
--------------------------------

Below you find a list of papers that are relevant to this ORCA run
We neither can nor want to force you to cite these papers, but we appreciate if you do
You receive ORCA, which is the product of decades of hard work by many enthusiastic individuals, for free
The only thing we kindly ask in return is that you cite our papers,
We deeply appreciate it, if you show your appreciation for ORCA by not just citing the generic ORCA reference.

Please note that relegating all ORCA citations to the supporting information does *not* help us.
SI sections are not indexed - citations you put there will not count into any citation statistics
But we need these citations in order to attract the funding resources that allow us to do what we are doing

Therefore, if you are a happy ORCA user, please consider citing a few of the papers listed below in the main body of your paper

In addition to the list printed below, the program has created the file frag.bibtex that contains the list in bibtex format
You can import this file easily into all common literature databanks and citation aid programs


List of essential papers. We consider these as the minimum necessary citations

  1. Neese,F.
     Software update: the ORCA program system, version 5.0
     WIRES Comput. Molec. Sci., 2022 12(1)e1606
     doi.org/10.1002/wcms.1606

List of papers to cite with high priority. The work reported in these papers was absolutely
necessary for this run to complete.
Our perspective: the developers of density functionals and basis sets usually get cited in chemistry papers
Good! But without the algorithms to do something with them, the functionals or basis sets would not do anything.
Hence, in our opinion, the algorithm design and method developments papers are equally worthy of getting cited

  1. Neese,F.
     The SHARK Integral Generation and Digestion System
     J. Comp. Chem., 2022  1-16
     doi.org/10.1002/jcc.26942

List of suggested additional citations. These are papers that are important in the 'surrounding' of 
of this run, or papers that preceded the highly important papers. If you like your results we are grateful for a citation.

  1. Neese,F.
     The ORCA program system
     WIRES Comput. Molec. Sci., 2012 2(1)73-78
     doi.org/10.1002/wcms.81
  2. Neese,F.
     Software update: the ORCA program system, version 4.0
     WIRES Comput. Molec. Sci., 2018 8(1)1-6
     doi.org/10.1002/wcms.1327
  3. Neese,F.; Wennmohs,F.; Becker,U.; Riplinger,C.
     The ORCA quantum chemistry program package
     J. Chem. Phys., 2020 152 Art. No. L224108
     doi.org/10.1063/5.0004608

List of optional additional citations

  1. Neese,F.
     Approximate second-order SCF convergence for spin unrestricted wavefunctions
     Chem. Phys. Lett., 2000 325(1-3)93-98
     doi.org/10.1016/s0009-2614(00)00662-x

Timings for individual modules:

Sum of individual times          ...        3.028 sec (=   0.050 min)
Startup calculation              ...        0.445 sec (=   0.007 min)  14.7 %
SCF iterations                   ...        2.001 sec (=   0.033 min)  66.1 %
Property calculations            ...        0.074 sec (=   0.001 min)   2.4 %
SCF Gradient evaluation          ...        0.507 sec (=   0.008 min)  16.8 %
                             ****ORCA TERMINATED NORMALLY****
TOTAL RUN TIME: 0 days 0 hours 0 minutes 3 seconds 363 msec
