
                                 *****************
                                 * O   R   C   A *
                                 *****************

                                            #,                                       
                                            ###                                      
                                            ####                                     
                                            #####                                    
                                            ######                                   
                                           ########,                                 
                                     ,,################,,,,,                         
                               ,,#################################,,                 
                          ,,##########################################,,             
                       ,#########################################, ''#####,          
                    ,#############################################,,   '####,        
                  ,##################################################,,,,####,       
                ,###########''''           ''''###############################       
              ,#####''   ,,,,##########,,,,          '''####'''          '####       
            ,##' ,,,,###########################,,,                        '##       
           ' ,,###''''                  '''############,,,                           
         ,,##''                                '''############,,,,        ,,,,,,###''
      ,#''                                            '''#######################'''  
     '                                                          ''''####''''         
             ,#######,   #######,   ,#######,      ##                                
            ,#'     '#,  ##    ##  ,#'     '#,    #''#        ,####,   ,####,        
            ##       ##  ##   ,#'  ##            #'  '#       #'       #'  '#        
            ##       ##  #######   ##           ,######,      #####,   #    #        
            '#,     ,#'  ##    ##  '#,     ,#' ,#      #,     #,   #   #,  ,#        
             '#######'   ##     ##  '#######'  #'      '#     '####' # '####'        



                #########################################################
                #                        -***-                          #
                #          Department of theory and spectroscopy        #
                #                                                       #
                #                      Frank Neese                      #
                #                                                       #
                #     Directorship, Architecture, Infrastructure        #
                #                    SHARK, DRIVERS                     #
                #        Core code/Algorithms in most modules           #
                #                                                       #
                #        Max Planck Institute fuer Kohlenforschung      #
                #                Kaiser Wilhelm Platz 1                 #
                #                 D-45470 Muelheim/Ruhr                 #
                #                      Germany                          #
                #                                                       #
                #                  All rights reserved                  #
                #                        -***-                          #
                #########################################################


                         Program Version 6.0.1  -  RELEASE   -


 With contributions from (in alphabetic order):
[Max-Planck-Institut fuer Kohlenforschung]                               
  Daniel Aravena         : Magnetic Suceptibility                        
  Michael Atanasov       : Ab Initio Ligand Field Theory (pilot matlab implementation)
  Alexander A. Auer      : GIAO ZORA, VPT2 properties, NMR spectrum      
  Ute Becker             : All parallelization in ORCA, NUMFREQ, NUMCALC 
  Giovanni Bistoni       : ED, misc. LED, open-shell LED, HFLD           
  Martin Brehm           : Molecular dynamics                            
  Dmytro Bykov           : pre 5.0 version of the SCF Hessian            
  Marcos Casanova-Páez   : Triplet and SCS-CIS(D). UHF-(DLPNO)-IP/EA/STEOM-CCSD. UHF-CVS-IP/STEOM-CCSD   
  Vijay G. Chilkuri      : MRCI spin determinant printing, contributions to CSF-ICE 
  Pauline Colinet        : FMM embedding                                 
  Dipayan Datta          : RHF DLPNO-CCSD density                        
  Achintya Kumar Dutta   : EOM-CC, STEOM-CC                              
  Nicolas Foglia         : Exact transition moments, OPA infrastructure, MCD improvements    
  Dmitry Ganyushin       : Spin-Orbit,Spin-Spin,Magnetic field MRCI      
  Miquel Garcia-Rates    : C-PCM and meta-GGA Hessian, CCSD/C-PCM, Gaussian charge scheme 
  Tiago L. C. Gouveia    : GS-ROHF, GS-ROCIS                             
  Yang Guo               : DLPNO-NEVPT2, F12-NEVPT2, CIM, IAO-localization        
  Andreas Hansen         : Spin unrestricted coupled pair/coupled cluster methods 
  Ingolf Harden          : AUTO-CI MPn and infrastructure                
  Benjamin Helmich-Paris : MC-RPA, TRAH-(SCF,CASSCF), AVAS, COSX integrals, SCF dyn. polar. 
  Lee Huntington         : MR-EOM, pCC                                   
  Robert Izsak           : Overlap fitted RIJCOSX, COSX-SCS-MP3, EOM     
  Riya Kayal             : Wick's Theorem for AUTO-CI, AUTO-CI UHF-CCSDT 
  Emily Kempfer          : AUTO-CI, RHF CISDT and CCSDT                  
  Christian Kollmar      : KDIIS, OOCD, Brueckner-CCSD(T), CCSD density, CASPT2, CASPT2-K, improved NEVPT2 
  Axel Koslowski         : Symmetry handling                             
  Simone Kossmann        : meta-GGA functionals, TD-DFT gradient, OOMP2, (MP2 Hessian; deprecated post 5.0) 
  Lucas Lang             : DCDCAS                                        
  Marvin Lechner         : AUTO-CI (C++ implementation), FIC-MRCC        
  Spencer Leger          : CASSCF response                               
  Dagmar Lenk            : GEPOL surface, SMD, ORCA-2-JSON               
  Dimitrios Liakos       : Extrapolation schemes; Compound Job, initial MDCI parallelization 
  Dimitrios Manganas     : Further ROCIS development; embedding schemes. LFT, Crystal Embedding 
  Dimitrios Pantazis     : SARC Basis sets                               
  Anastasios Papadopoulos: AUTO-CI, single reference methods and gradients 
  Taras Petrenko         : pre 6.0 DFT Hessian and TD-DFT gradient, (ASA, deprecated), ECA, 1-Electron XAS/XES, NRVS 
  Peter Pinski           : DLPNO-MP2, DLPNO-MP2 Gradient                 
  Christoph Reimann      : Effective Core Potentials                     
  Marius Retegan         : Local ZFS, SOC                                
  Christoph Riplinger    : Optimizer, TS searches, QM/MM, DLPNO-CCSD(T), (RO)-DLPNO pert. Triples 
  Michael Roemelt        : Original ROCIS implementation                 
  Masaaki Saitow         : Open-shell DLPNO-CCSD energy and density      
  Barbara Sandhoefer     : DKH picture change effects                    
  Kantharuban Sivalingam : CASSCF convergence/infrastructure, NEVPT2 and variants, FIC-MRCI 
  Bernardo de Souza      : ESD, SOC TD-DFT                               
  Georgi L. Stoychev     : AutoAux, RI-MP2 NMR, DLPNO-MP2 response, X2C  
  Van Anh Tran           : RI-MP2 g-tensors                              
  Willem Van den Heuvel  : Paramagnetic NMR                              
  Zikuan Wang            : NOTCH, Electric field optimization            
  Frank Wennmohs         : Technical directorship and infrastructure     
  Hang Xu                : AUTO-CI-Response properties                   
                                                                         
[FACCTs GmbH]                                                            
  Markus Bursch, Miquel Garcia-Rates, Christoph Riplinger, Bernardo de Souza, Georgi L. Stoychev 
                                                                 
  APM, Basis sets (HGBS, AHGBS, def-TZVP (Ac-Lr), def2-XVPD (La-Lu)), CI-OPT, improved COSX, DLPNO-Multilevel,           
  DOCKER, DRACO, updates on ESD, GOAT, IRC, LR-CPCM, MBIS, meta-GGA TD-DFT gradient, ML-optimized integration grids, 
  MM, NACMEs, nearIR, NEB, NEB-TS, NL-DFT gradient (VV10), 2- and 3-layer-ONIOM, interface openCOSMO-RS, QMMM,   
  Crystal-QMMM, SF, symmetry and pop. for TD-DFT, r2SCAN hybrids, SOLVATOR                                   
                                                                         
[Other institutions]                                                     
  V. Asgeirsson          : NEB                                           
  Christoph Bannwarth    : sTDA-DFT, sTD-DFT, PBEh-3c, B97-3c, D3        
  Sebastian Ehlert       : rSCAN, r2SCAN, r2SCAN-3c, D4, dhf basis sets  
  Marvin Friede          : D4 for Fr, Ra, Ac-Lr                          
  Lars Goerigk           : TD-DFT with DH, B97 family of functionals     
  Stefan Grimme          : VdW corrections, initial TS optimization, DFT functionals, gCP, sTDA/sTD-DF 
  Waldemar Hujo          : DFT-NL                                        
  H. Jonsson             : NEB                                           
  Holger Kruse           : gCP                                           
  Marcel Mueller         : wB97X-3c, vDZP basis set                      
  Hagen Neugebauer       : wr2SCAN                                       
  Tobias Risthaus        : range-separated hybrid DFT                    
  Lukas Wittmann         : regularized MP2, r2SCAN double-hybrids, wr2SCAN        
                                                                         
We gratefully acknowledge several colleagues who have allowed us to      
interface, adapt or use parts of their codes:                            
  Ed Valeev, F. Pavosevic, A. Kumar             : LibInt (2-el integral package), F12 methods 
  Garnet Chan, S. Sharma, J. Yang, R. Olivares  : DMRG                   
  Ulf Ekstrom                                   : XCFun DFT Library      
  Mihaly Kallay                                 : mrcc  (arbitrary order and MRCC methods)
  Frank Weinhold                                : gennbo (NPA and NBO analysis)           
  Simon Mueller                                 : openCOSMO-RS                            
  Christopher J. Cramer and Donald G. Truhlar   : smd solvation model                     
  S Lehtola, MJT Oliveira, MAL Marques          : LibXC Library                           
  Liviu Ungur et al                             : ANISO software                          


 Your calculation uses the libint2 library for the computation of 2-el integrals
 For citations please refer to: http://libint.valeyev.net

 Your ORCA version has been built with support for libXC version: 6.2.2
 For citations please refer to: https://libxc.gitlab.io

 This ORCA versions uses:
   CBLAS   interface :  Fast vector & matrix operations
   LAPACKE interface :  Fast linear algebra routines
   SCALAPACK package :  Parallel linear algebra routines
   Shared memory     :  Shared parallel matrices
   BLAS/LAPACK       :  OpenBLAS 0.3.27  USE64BITINT DYNAMIC_ARCH NO_AFFINITY SkylakeX SINGLE_THREADED
        Core in use  :  SkylakeX
   Copyright (c) 2011-2014, The OpenBLAS Project


================================================================================

----- Orbital basis set information -----
Your calculation utilizes the basis: 6-31G*
   H-He, Li-Ne : W. J. Hehre, R. Ditchfield and J.A. Pople, J. Chem. Phys. 56, 2257 (1972).
                 Note: He and Ne are unpublished basis sets taken from the Gaussian program.
                 Note: Li and B from J. D. Dill and J. A. Pople, J. Chem. Phys. 62, 2921 (1975).
   Na - Ar     : M. M. Francl, W. J. Pietro, W. J. Hehre, J. S. Binkley, M. S. Gordon, 
                 D. J. DeFrees and J. A. Pople, J. Chem. Phys. 77, 3654 (1982).
   K - Zn      : V. A. Rassolov, J. A. Pople, M. A. Ratner, and T. L. Windus, J. Chem. Phys. 109, 1223 (1998).

================================================================================
                                        WARNINGS
                       Please study these warnings very carefully!
================================================================================


================================================================================
                                       INPUT FILE
================================================================================
NAME = frag.inp
|  1> !HF 6-31G* EnGrad
|  2> %pal nprocs 1 end
|  3> *xyz 0 1
|  4> O 21.31548000 47.19077000 40.87238000
|  5> H 20.96265000 46.41737000 40.67613000
|  6> H 22.11097000 46.98487000 41.16553000
|  7> O 20.35232000 49.63574000 40.01023000
|  8> H 19.54326000 49.49202000 40.30334000
|  9> H 20.79050000 48.92392000 40.26012000
| 10> O 22.25294000 44.28778000 39.87163000
| 11> H 22.68414000 43.83080000 40.47691000
| 12> H 22.81575000 44.91633000 39.64956000
| 13> *
| 14> 
| 15>                          ****END OF INPUT****
================================================================================

                     *******************************
                     * Energy+Gradient Calculation *
                     *******************************

---------------------------------
CARTESIAN COORDINATES (ANGSTROEM)
---------------------------------
  O     21.315480   47.190770   40.872380
  H     20.962650   46.417370   40.676130
  H     22.110970   46.984870   41.165530
  O     20.352320   49.635740   40.010230
  H     19.543260   49.492020   40.303340
  H     20.790500   48.923920   40.260120
  O     22.252940   44.287780   39.871630
  H     22.684140   43.830800   40.476910
  H     22.815750   44.916330   39.649560

----------------------------
CARTESIAN COORDINATES (A.U.)
----------------------------
  NO LB      ZA    FRAG     MASS         X           Y           Z
   0 O     8.0000    0    15.999   40.280420   89.177631   77.237605
   1 H     1.0000    0     1.008   39.613668   87.716117   76.866746
   2 H     1.0000    0     1.008   41.783678   88.788537   77.791578
   3 O     8.0000    0    15.999   38.460311   93.797955   75.608377
   4 H     1.0000    0     1.008   36.931409   93.526364   76.162275
   5 H     1.0000    0     1.008   39.288351   92.452810   76.080601
   6 O     8.0000    0    15.999   42.051962   83.691775   75.346461
   7 H     1.0000    0     1.008   42.866812   82.828208   76.490275
   8 H     1.0000    0     1.008   43.115519   84.879563   74.926810

--------------------------------
INTERNAL COORDINATES (ANGSTROEM)
--------------------------------
 O      0   0   0     0.000000000000     0.00000000     0.00000000
 H      1   0   0     0.872439471482     0.00000000     0.00000000
 H      1   2   0     0.872431127712   103.59872274     0.00000000
 O      1   2   3     2.765656903703   124.94050107   163.91954266
 H      4   1   2     0.872437386922    94.16296827    53.43396732
 H      4   1   2     0.872430190273     9.76862677   218.60673426
 O      2   1   3     2.616719721751   126.24180712   329.77871731
 H      7   2   1     0.872426523439   117.17456234    76.98324549
 H      7   2   1     0.872436406565    79.04835924   337.20315741

---------------------------
INTERNAL COORDINATES (A.U.)
---------------------------
 O      0   0   0     0.000000000000     0.00000000     0.00000000
 H      1   0   0     1.648671669524     0.00000000     0.00000000
 H      1   2   0     1.648655902083   103.59872274     0.00000000
 O      1   2   3     5.226334128387   124.94050107   163.91954266
 H      4   1   2     1.648667730277    94.16296827    53.43396732
 H      4   1   2     1.648654130581     9.76862677   218.60673426
 O      2   1   3     4.944883643340   126.24180712   329.77871731
 H      7   2   1     1.648647201269   117.17456234    76.98324549
 H      7   2   1     1.648665877670    79.04835924   337.20315741

---------------------
BASIS SET INFORMATION
---------------------
There are 2 groups of distinct atoms

 Group   1 Type O   : 10s4p1d contracted to 3s2p1d pattern {631/31/1}
 Group   2 Type H   : 4s contracted to 2s pattern {31}

Atom   0O    basis set group =>   1
Atom   1H    basis set group =>   2
Atom   2H    basis set group =>   2
Atom   3O    basis set group =>   1
Atom   4H    basis set group =>   2
Atom   5H    basis set group =>   2
Atom   6O    basis set group =>   1
Atom   7H    basis set group =>   2
Atom   8H    basis set group =>   2
------------------------------------------------------------------------------
                             ORCA STARTUP CALCULATIONS
------------------------------------------------------------------------------
------------------------------------------------------------------------------
                   ___                                                        
                  /   \      - P O W E R E D   B Y -                         
                 /     \                                                     
                 |  |  |   _    _      __       _____    __    __             
                 |  |  |  | |  | |    /  \     |  _  \  |  |  /  |          
                  \  \/   | |  | |   /    \    | | | |  |  | /  /          
                 / \  \   | |__| |  /  /\  \   | |_| |  |  |/  /          
                |  |  |   |  __  | /  /__\  \  |    /   |      \           
                |  |  |   | |  | | |   __   |  |    \   |  |\   \          
                \     /   | |  | | |  |  |  |  | |\  \  |  | \   \       
                 \___/    |_|  |_| |__|  |__|  |_| \__\ |__|  \__/        
                                                                              
                      - O R C A' S   B I G   F R I E N D -                    
                                      &                                       
                       - I N T E G R A L  F E E D E R -                       
                                                                              
 v1 FN, 2020, v2 2021, v3 2022-2024                                           
------------------------------------------------------------------------------


----------------------
SHARK INTEGRAL PACKAGE
----------------------

Number of atoms                             ...      9
Number of basis functions                   ...     54
Number of shells                            ...     30
Maximum angular momentum                    ...      2
Integral batch strategy                     ... SHARK/LIBINT Hybrid
RI-J (if used) integral strategy            ... SPLIT-RIJ (Revised 2003 algorithm where possible)
Printlevel                                  ...      1
Contraction scheme used                     ... SEGMENTED contraction
Prescreening option                         ... SCHWARTZ
   Thresh                                   ... 2.500e-11
   Tcut                                     ... 2.500e-12
   Tpresel                                  ... 2.500e-12 
Coulomb Range Separation                    ... NOT USED
Exchange Range Separation                   ... NOT USED
Multipole approximations                    ... NOT USED
Finite Nucleus Model                        ... NOT USED
CABS basis                                  ... NOT available
Auxiliary Coulomb fitting basis             ... NOT available
Auxiliary J/K fitting basis                 ... NOT available
Auxiliary Correlation fitting basis         ... NOT available
Auxiliary 'external' fitting basis          ... NOT available

Checking pre-screening integrals            ... done (  0.0 sec) Dimension = 30
Check shell pair data                       ... done (  0.0 sec)
Shell pair information
Shell pair cut-off parameter TPreSel        ...   2.5e-12
Total number of shell pairs                 ...       465
Shell pairs after pre-screening             ...       418
Total number of primitive shell pairs       ...      2496
Primitive shell pairs kept                  ...      1602
          la=0 lb=0:    208 shell pairs
          la=1 lb=0:    114 shell pairs
          la=1 lb=1:     20 shell pairs
          la=2 lb=0:     55 shell pairs
          la=2 lb=1:     16 shell pairs
          la=2 lb=2:      5 shell pairs

Calculating one electron integrals          ... done (  0.0 sec)
Calculating Nuclear repulsion               ... done (  0.0 sec) ENN=     75.699377069357 Eh

Diagonalization of the overlap matrix:
Smallest eigenvalue                        ... 3.189e-02
Time for diagonalization                   ...    0.001 sec
Threshold for overlap eigenvalues          ... 1.000e-07
Number of eigenvalues below threshold      ... 0
Time for construction of square roots      ...    0.004 sec
Total time needed                          ...    0.008 sec

-------------------
DFT GRID GENERATION
-------------------

General Integration Accuracy     IntAcc      ... 4.388
Radial Grid Type                 RadialGrid  ... OptM3 with GC (2021)
Angular Grid (max. ang.)         AngularGrid ... 4 (Lebedev-302)
Angular grid pruning method      GridPruning ... 4 (adaptive)
Weight generation scheme         WeightScheme... mBecke (2022)
Basis function cutoff            BFCut       ... 1.0000e-11
Integration weight cutoff        WCut        ... 1.0000e-14
Partially contracted basis set               ... off
Rotationally invariant grid construction     ... off
Angular grids for H and He will be reduced by one unit

Total number of grid points                  ...    38114
Total number of batches                      ...      601
Average number of points per batch           ...       63
Average number of grid points per atom       ...     4235
Initializing property integral containers    ... done (  0.0 sec)

SHARK setup successfully completed in   0.3 seconds

Maximum memory used throughout the entire STARTUP-calculation: 13.2 MB
-------------------------------------------------------------------------------
                                 ORCA GUESS
                   Start orbitals & Density for SCF / CASSCF
-------------------------------------------------------------------------------

------------
SCF SETTINGS
------------
Hamiltonian:
 Ab initio Hamiltonian  Method          .... Hartree-Fock(GTOs)


General Settings:
 Integral files         IntName         .... frag
 Hartree-Fock type      HFTyp           .... RHF
 Total Charge           Charge          ....    0
 Multiplicity           Mult            ....    1
 Number of Electrons    NEL             ....   30
 Basis Dimension        Dim             ....   54
 Nuclear Repulsion      ENuc            ....     75.6993770694 Eh

Convergence Acceleration:
 AO-DIIS                CNVDIIS         .... on
   Start iteration      DIISMaxIt       ....    12
   Startup error        DIISStart       ....  0.200000
   # of expansion vecs  DIISMaxEq       ....     5
   Bias factor          DIISBfac        ....   1.050
   Max. coefficient     DIISMaxC        ....  10.000
 MO-DIIS                CNVKDIIS        .... off
 Trust-Rad. Augm. Hess. CNVTRAH         .... auto
   Auto Start mean grad. ratio tolernc. ....  1.125000
   Auto Start start iteration           ....    50
   Auto Start num. interpolation iter.  ....    10
   Max. Number of Micro iterations      ....    24
   Max. Number of Macro iterations      .... Maxiter - #DIIS iter
   Number of Davidson start vectors     ....     2
   Converg. threshold    (grad. norm)   ....   1.000e-05
   Grad. Scal. Fac. for Micro threshold ....   0.100
   Minimum threshold for Micro iter.    ....   1.000e-02
   NR start threshold (gradient norm)   ....   1.000e-04
   Initial trust radius                 ....   0.400
   Minimum AH scaling param. (alpha)    ....   1.000
   Maximum AH scaling param. (alpha)    .... 1000.000
   Quad. conv. algorithm                .... NR
   White noise on init. David. guess    .... on
   Maximum white noise                  ....   0.010
   Pseudo random numbers                .... off
   Inactive MOs                         .... canonical
   Orbital update algorithm             .... Taylor
   Preconditioner                       .... Diag
   Full preconditioner red. dimension   ....   250
 SOSCF                  CNVSOSCF        .... on
   Start iteration      SOSCFMaxIt      ....   150
   Startup grad/error   SOSCFStart      ....  0.003300
   Hessian update       SOSCFHessUp     .... L-BFGS
 Level Shifting         CNVShift        .... on
   Level shift para.    LevelShift      ....    0.2500
   Turn off err/grad.   ShiftErr        ....    0.0010
 Zerner damping         CNVZerner       .... off
 Static damping         CNVDamp         .... on
   Fraction old density DampFac         ....    0.7000
   Max. Damping (<1)    DampMax         ....    0.9800
   Min. Damping (>=0)   DampMin         ....    0.0000
   Turn off err/grad.   DampErr         ....    0.1000

SCF Procedure:
 Maximum # iterations   MaxIter         ....   125
 SCF integral mode      SCFMode         .... Direct
   Integral package                     .... SHARK and LIBINT hybrid scheme
 Reset frequency        DirectResetFreq ....    20
 Integral Threshold     Thresh          ....  2.500e-11 Eh
 Primitive CutOff       TCut            ....  2.500e-12 Eh

Convergence Tolerance:
 Convergence Check Mode ConvCheckMode   .... Total+1el-Energy
 Convergence forced     ConvForced      .... 0
 Energy Change          TolE            ....  1.000e-08 Eh
 1-El. energy change                    ....  1.000e-05 Eh
 Orbital Gradient       TolG            ....  1.000e-05
 Orbital Rotation angle TolX            ....  1.000e-05
 DIIS Error             TolErr          ....  5.000e-07

------------------------------
INITIAL GUESS: MODEL POTENTIAL
------------------------------
Loading Hartree-Fock densities                     ... done
Calculating cut-offs                               ... done
Initializing the effective Hamiltonian             ... done
Setting up the integral package (SHARK)            ... done
Starting the Coulomb interaction                   ... done (   0.0 sec)
Making the grid                                    ... done (   0.0 sec)
Mapping shells                                     ... done
Starting the XC term evaluation                    ... done (   0.0 sec)
Transforming the Hamiltonian                       ... done (   0.0 sec)
Diagonalizing the Hamiltonian                      ... done (   0.0 sec)
Back transforming the eigenvectors                 ... done (   0.0 sec)
Now organizing SCF variables                       ... done
                      ------------------
                      INITIAL GUESS DONE (   0.1 sec)
                      ------------------
             **** ENERGY FILE WAS UPDATED (frag.en.tmp) ****
Finished Guess after   0.2 sec
Maximum memory used throughout the entire GUESS-calculation: 5.7 MB

-------------------------------------------------------------------------------------------
                                      ORCA LEAN-SCF
                              memory conserving SCF solver
-------------------------------------------------------------------------------------------

----------------------------------------D-I-I-S--------------------------------------------
Iteration    Energy (Eh)           Delta-E    RMSDP     MaxDP     DIISErr   Damp  Time(sec)
-------------------------------------------------------------------------------------------
               ***  Starting incremental Fock matrix formation  ***
    1    -227.6979025007594259     0.00e+00  7.07e-03  7.38e-02  3.34e-01  0.700   0.1
    2    -227.8130500484764980    -1.15e-01  4.81e-03  5.08e-02  2.04e-01  0.700   0.1
                               ***Turning on AO-DIIS***
    3    -227.8754584227845612    -6.24e-02  1.93e-03  2.22e-02  1.15e-01  0.700   0.1
    4    -227.9132337250003957    -3.78e-02  1.19e-03  1.43e-02  7.82e-02  0.700   0.1
    5    -227.9382183990039152    -2.50e-02  2.78e-03  3.39e-02  5.55e-02  0.000   0.1
                              *** Initializing SOSCF ***
---------------------------------------S-O-S-C-F--------------------------------------
Iteration    Energy (Eh)           Delta-E    RMSDP     MaxDP     MaxGrad    Time(sec)
--------------------------------------------------------------------------------------
    6    -227.9939811578328772    -5.58e-02  2.21e-04  2.09e-03  3.21e-03     0.1
               *** Restarting incremental Fock matrix formation ***
    7    -227.9940294955243871    -4.83e-05  1.34e-04  9.82e-04  6.62e-04     0.1
    8    -227.9940387070160455    -9.21e-06  9.24e-05  6.08e-04  2.91e-04     0.1
    9    -227.9940403336276518    -1.63e-06  1.37e-05  1.14e-04  9.86e-05     0.1
   10    -227.9940404289241656    -9.53e-08  1.81e-06  1.88e-05  9.99e-06     0.1
   11    -227.9940404307811832    -1.86e-09  8.75e-07  9.66e-06  3.55e-06     0.1
                 **** Energy Check signals convergence ****

               *****************************************************
               *                     SUCCESS                       *
               *           SCF CONVERGED AFTER  11 CYCLES          *
               *****************************************************

             **** ENERGY FILE WAS UPDATED (frag.en.tmp) ****

----------------
TOTAL SCF ENERGY
----------------

Total Energy       :       -227.99404043078118 Eh           -6204.03325 eV

Components:
Nuclear Repulsion  :         75.69937706935696 Eh            2059.88477 eV
Electronic Energy  :       -303.69341750013814 Eh           -8263.91802 eV
One Electron Energy:       -464.54718943558157 Eh          -12640.97168 eV
Two Electron Energy:        160.85377193544343 Eh            4377.05366 eV

Virial components:
Potential Energy   :       -457.15338698351263 Eh          -12439.77609 eV
Kinetic Energy     :        229.15934655273148 Eh            6235.74284 eV
Virial Ratio       :          1.99491486540052

---------------
SCF CONVERGENCE
---------------

  Last Energy change         ...    1.8570e-09  Tolerance :   1.0000e-08
  Last MAX-Density change    ...    9.6603e-06  Tolerance :   1.0000e-07
  Last RMS-Density change    ...    8.7517e-07  Tolerance :   5.0000e-09
  Last DIIS Error            ...    3.2059e-03  Tolerance :   5.0000e-07
  Last Orbital Gradient      ...    3.5500e-06  Tolerance :   1.0000e-05
  Last Orbital Rotation      ...    4.1323e-06  Tolerance :   1.0000e-05


----------------
ORBITAL ENERGIES
----------------

  NO   OCC          E(Eh)            E(eV) 
   0   2.0000     -20.568803      -559.7056 
   1   2.0000     -20.563184      -559.5527 
   2   2.0000     -20.494931      -557.6954 
   3   2.0000      -1.422307       -38.7029 
   4   2.0000      -1.416716       -38.5508 
   5   2.0000      -1.350887       -36.7595 
   6   2.0000      -0.783943       -21.3322 
   7   2.0000      -0.778718       -21.1900 
   8   2.0000      -0.722151       -19.6507 
   9   2.0000      -0.623356       -16.9624 
  10   2.0000      -0.618292       -16.8246 
  11   2.0000      -0.545901       -14.8547 
  12   2.0000      -0.534786       -14.5523 
  13   2.0000      -0.529905       -14.4194 
  14   2.0000      -0.465942       -12.6789 
  15   0.0000       0.180015         4.8985 
  16   0.0000       0.256487         6.9794 
  17   0.0000       0.289335         7.8732 
  18   0.0000       0.310969         8.4619 
  19   0.0000       0.331071         9.0089 
  20   0.0000       0.461400        12.5553 
  21   0.0000       1.013352        27.5747 
  22   0.0000       1.023772        27.8583 
  23   0.0000       1.076424        29.2910 
  24   0.0000       1.119135        30.4532 
  25   0.0000       1.148264        31.2458 
*Only the first 10 virtual orbitals were printed.

                    ********************************
                    * MULLIKEN POPULATION ANALYSIS *
                    ********************************

-----------------------
MULLIKEN ATOMIC CHARGES
-----------------------
   0 O :   -0.908986
   1 H :    0.468663
   2 H :    0.447756
   3 O :   -0.946230
   4 H :    0.429196
   5 H :    0.501805
   6 O :   -0.889077
   7 H :    0.449704
   8 H :    0.447169
Sum of atomic charges:   -0.0000000

--------------------------------
MULLIKEN REDUCED ORBITAL CHARGES
--------------------------------
  0 O s       :     3.843323  s :     3.843323
      pz      :     1.911329  p :     5.034017
      px      :     1.492253
      py      :     1.630436
      dz2     :     0.004308  d :     0.031645
      dxz     :     0.002905
      dyz     :     0.003735
      dx2y2   :     0.012279
      dxy     :     0.008418

  1 H s       :     0.531337  s :     0.531337

  2 H s       :     0.552244  s :     0.552244

  3 O s       :     3.851323  s :     3.851323
      pz      :     1.917619  p :     5.062307
      px      :     1.420403
      py      :     1.724285
      dz2     :     0.003454  d :     0.032601
      dxz     :     0.006196
      dyz     :     0.005411
      dx2y2   :     0.009598
      dxy     :     0.007941

  4 H s       :     0.570804  s :     0.570804

  5 H s       :     0.498195  s :     0.498195

  6 O s       :     3.848758  s :     3.848758
      pz      :     1.717069  p :     5.006751
      px      :     1.707327
      py      :     1.582355
      dz2     :     0.004701  d :     0.033568
      dxz     :     0.009510
      dyz     :     0.002894
      dx2y2   :     0.001757
      dxy     :     0.014706

  7 H s       :     0.550296  s :     0.550296

  8 H s       :     0.552831  s :     0.552831



                     *******************************
                     * LOEWDIN POPULATION ANALYSIS *
                     *******************************

----------------------
LOEWDIN ATOMIC CHARGES
----------------------
   0 O :   -0.606033
   1 H :    0.320485
   2 H :    0.314520
   3 O :   -0.647001
   4 H :    0.307965
   5 H :    0.301776
   6 O :   -0.621393
   7 H :    0.316480
   8 H :    0.313199

-------------------------------
LOEWDIN REDUCED ORBITAL CHARGES
-------------------------------
  0 O s       :     3.541887  s :     3.541887
      pz      :     1.909852  p :     5.024177
      px      :     1.492104
      py      :     1.622222
      dz2     :     0.004880  d :     0.039968
      dxz     :     0.003891
      dyz     :     0.004367
      dx2y2   :     0.015915
      dxy     :     0.010915

  1 H s       :     0.679515  s :     0.679515

  2 H s       :     0.685480  s :     0.685480

  3 O s       :     3.544036  s :     3.544036
      pz      :     1.920174  p :     5.062657
      px      :     1.424565
      py      :     1.717918
      dz2     :     0.003978  d :     0.040308
      dxz     :     0.007840
      dyz     :     0.005612
      dx2y2   :     0.012702
      dxy     :     0.010175

  4 H s       :     0.692035  s :     0.692035

  5 H s       :     0.698224  s :     0.698224

  6 O s       :     3.555796  s :     3.555796
      pz      :     1.719695  p :     5.023353
      px      :     1.722178
      py      :     1.581480
      dz2     :     0.005672  d :     0.042244
      dxz     :     0.011495
      dyz     :     0.004432
      dx2y2   :     0.001821
      dxy     :     0.018823

  7 H s       :     0.683520  s :     0.683520

  8 H s       :     0.686801  s :     0.686801



                      *****************************
                      * MAYER POPULATION ANALYSIS *
                      *****************************

  NA   - Mulliken gross atomic population
  ZA   - Total nuclear charge
  QA   - Mulliken gross atomic charge
  VA   - Mayer's total valence
  BVA  - Mayer's bonded valence
  FA   - Mayer's free valence

  ATOM       NA         ZA         QA         VA         BVA        FA
  0 O      8.9090     8.0000    -0.9090     1.5622     1.5622    -0.0000
  1 H      0.5313     1.0000     0.4687     0.7577     0.7577     0.0000
  2 H      0.5522     1.0000     0.4478     0.7683     0.7683     0.0000
  3 O      8.9462     8.0000    -0.9462     1.4984     1.4984    -0.0000
  4 H      0.5708     1.0000     0.4292     0.7816     0.7816     0.0000
  5 H      0.4982     1.0000     0.5018     0.7321     0.7321     0.0000
  6 O      8.8891     8.0000    -0.8891     1.5640     1.5640     0.0000
  7 H      0.5503     1.0000     0.4497     0.7631     0.7631    -0.0000
  8 H      0.5528     1.0000     0.4472     0.7668     0.7668     0.0000

  Mayer bond orders larger than 0.100000
B(  0-O ,  1-H ) :   0.7471 B(  0-O ,  2-H ) :   0.7698 B(  3-O ,  4-H ) :   0.7902 
B(  3-O ,  5-H ) :   0.7041 B(  6-O ,  7-H ) :   0.7719 B(  6-O ,  8-H ) :   0.7694 


-------
TIMINGS
-------

Total SCF time: 0 days 0 hours 0 min 1 sec 

Total time                  ....       1.173 sec
Sum of individual times     ....       1.082 sec  ( 92.3%)

SCF preparation             ....       0.080 sec  (  6.8%)
Fock matrix formation       ....       0.689 sec  ( 58.7%)
  Startup                   ....       0.029 sec  (  4.2% of F)
  Coulomb+Exchange Fock     ....       0.602 sec  ( 87.4% of F)
Diagonalization             ....       0.000 sec  (  0.0%)
Density matrix formation    ....       0.091 sec  (  7.8%)
Total Energy calculation    ....       0.022 sec  (  1.9%)
Population analysis         ....       0.024 sec  (  2.0%)
Orbital Transformation      ....       0.023 sec  (  2.0%)
Orbital Orthonormalization  ....       0.000 sec  (  0.0%)
DIIS solution               ....       0.105 sec  (  8.9%)
SOSCF solution              ....       0.048 sec  (  4.1%)
Finished LeanSCF after   1.2 sec

Maximum memory used throughout the entire LEANSCF-calculation: 7.7 MB

-------------------------   --------------------
FINAL SINGLE POINT ENERGY      -227.994040430781
-------------------------   --------------------

------------------------------------------------------------------------------
                         ORCA SCF GRADIENT CALCULATION
------------------------------------------------------------------------------

Nuc. rep. gradient        (SHARK) ... done (  0.0 sec)
HCore & Overlap gradient  (SHARK) ... done (  0.0 sec)
Two-electron gradient     (SHARK) ... done (  0.3 sec)

------------------
CARTESIAN GRADIENT
------------------

   1   O   :    0.048128009   -0.110255355    0.008528166
   2   H   :    0.053857214    0.099459958    0.029993060
   3   H   :   -0.103973337    0.017302547   -0.040408946
   4   O   :   -0.040067693   -0.107077141    0.065688548
   5   H   :    0.105466885    0.011415156   -0.034772649
   6   H   :   -0.063399122    0.090716584   -0.028820263
   7   O   :    0.116521858    0.015295931    0.040688045
   8   H   :   -0.048641392    0.066807659   -0.078996878
   9   H   :   -0.067892421   -0.083665338    0.038100917

Difference to translation invariance:
           :   -0.0000000000   -0.0000000001    0.0000000000

Difference to rotation invariance:
           :   -0.0000003436    0.0000000544   -0.0000001464

Norm of the Cartesian gradient     ...    0.3542685027
RMS gradient                       ...    0.0681790051
MAX gradient                       ...    0.1165218583

-------
TIMINGS
-------

Total SCF gradient time     ....        0.296 sec

Densities                   ....       0.000 sec  (  0.0%)
One electron gradient       ....       0.021 sec  (  7.1%)
Two electron gradient       ....       0.275 sec  ( 92.9%)

Maximum memory used throughout the entire SCFGRAD-calculation: 13.5 MB

------------------------------------------------------------------------------
                              ORCA PROPERTY CALCULATIONS
------------------------------------------------------------------------------

GBWName                                 ... frag.gbw
Number of atoms                         ...      9
Number of basis functions               ...     54
Max core memory                         ...   1024 MB

Electric properties:
Dipole moment                           ... YES
Quadrupole moment                       ...  NO
Static polarizability (Dipole/Dipole)   ...  NO
Static polarizability (Dipole/Quad.)    ...  NO
Static polarizability (Quad./Quad.)     ...  NO
Static polarizability (Velocity)        ...  NO

Atomic electric properties:
Dipole moment                           ...  NO
Quadrupole moment                       ...  NO
Static polarizability                   ...  NO

Choice of electric origin               ... Center of mass
Position of electric origin             ...    40.301795    88.830498    76.100208

General magnetic properties:
Magnetizability                         ...  NO

EPR properties:
g-Tensor (aka g-matrix)                 ...  NO
Zero-Field splitting spin-orbit         ...  NO
Zero-field splitting spin-spin          ...  NO
Hyperfine couplings                     ...  NO (   0 nuclei)
Quadrupole couplings                    ...  NO (   0 nuclei)
Contact density                         ...  NO (   0 nuclei)

NMR properties:
Chemical shifts                         ...  NO (   0 nuclei)
Spin-rotation constants                 ...  NO (   0 nuclei)
Spin-spin couplings                     ...  NO (   0 nuclei,    0 pairs)

Choice of magnetic origin               ... GIAO
Position of magnetic origin             ...     0.000000     0.000000     0.000000

Properties with geometric perturbations:
SCF Hessian                             ...  NO
IR spectrum                             ...  NO
VCD spectrum                            ...  NO
X-ray spectroscopy properties:
SCF XES/XAS/RIXS spectra                ...  NO


-------------
DIPOLE MOMENT
-------------

Method             : SCF
Type of density    : Electron Density
Multiplicity       :   1
Irrep              :   0
Energy             :  -227.9940404307811832 Eh
Relativity type    : 
Basis              : AO
                                X                 Y                 Z
Electronic contribution:      0.030863588      -0.139837820      -0.028560780
Nuclear contribution   :      0.887121643      -1.384440476       0.851596491
                        -----------------------------------------
Total Dipole Moment    :      0.917985231      -1.524278296       0.823035711
                        -----------------------------------------
Magnitude (a.u.)       :      1.960486927
Magnitude (Debye)      :      4.983161750



--------------------
Rotational spectrum 
--------------------
 
Rotational constants in cm-1:             1.328270             0.057798             0.056130 
Rotational constants in MHz :         39820.517985          1732.754967          1682.746704 

Dipole components along the rotational axes: 
x,y,z [a.u.] :     1.722123     0.911090     0.218440 
x,y,z [Debye]:     4.377290     2.315806     0.555231 

 

Dipole moment calculation done in   0.0 sec 

Maximum memory used throughout the entire PROP-calculation: 2.2 MB

--------------------------------
SUGGESTED CITATIONS FOR THIS RUN
--------------------------------

Below you find a list of papers that are relevant to this ORCA run
We neither can nor want to force you to cite these papers, but we appreciate if you do
You receive ORCA, which is the product of decades of hard work by many enthusiastic individuals, for free
The only thing we kindly ask in return is that you cite our papers,
We deeply appreciate it, if you show your appreciation for ORCA by not just citing the generic ORCA reference.

Please note that relegating all ORCA citations to the supporting information does *not* help us.
SI sections are not indexed - citations you put there will not count into any citation statistics
But we need these citations in order to attract the funding resources that allow us to do what we are doing

Therefore, if you are a happy ORCA user, please consider citing a few of the papers listed below in the main body of your paper

In addition to the list printed below, the program has created the file frag.bibtex that contains the list in bibtex format
You can import this file easily into all common literature databanks and citation aid programs


List of essential papers. We consider these as the minimum necessary citations

  1. Neese,F.
     Software update: the ORCA program system, version 5.0
     WIRES Comput. Molec. Sci., 2022 12(1)e1606
     doi.org/10.1002/wcms.1606

List of papers to cite with high priority. The work reported in these papers was absolutely
necessary for this run to complete.
Our perspective: the developers of density functionals and basis sets usually get cited in chemistry papers
Good! But without the algorithms to do something with them, the functionals or basis sets would not do anything.
Hence, in our opinion, the algorithm design and method developments papers are equally worthy of getting cited

  1. Neese,F.
     The SHARK Integral Generation and Digestion System
     J. Comp. Chem., 2022  1-16
     doi.org/10.1002/jcc.26942

List of suggested additional citations. These are papers that are important in the 'surrounding' of 
of this run, or papers that preceded the highly important papers. If you like your results we are grateful for a citation.

  1. Neese,F.
     The ORCA program system
     WIRES Comput. Molec. Sci., 2012 2(1)73-78
     doi.org/10.1002/wcms.81
  2. Neese,F.
     Software update: the ORCA program system, version 4.0
     WIRES Comput. Molec. Sci., 2018 8(1)1-6
     doi.org/10.1002/wcms.1327
  3. Neese,F.; Wennmohs,F.; Becker,U.; Riplinger,C.
     The ORCA quantum chemistry program package
     J. Chem. Phys., 2020 152 Art. No. L224108
     doi.org/10.1063/5.0004608

List of optional additional citations

  1. Neese,F.
     Approximate second-order SCF convergence for spin unrestricted wavefunctions
     Chem. Phys. Lett., 2000 325(1-3)93-98
     doi.org/10.1016/s0009-2614(00)00662-x

Timings for individual modules:

Sum of individual times          ...        2.236 sec (=   0.037 min)
Startup calculation              ...        0.375 sec (=   0.006 min)  16.8 %
SCF iterations                   ...        1.453 sec (=   0.024 min)  65.0 %
Property calculations            ...        0.053 sec (=   0.001 min)   2.4 %
SCF Gradient evaluation          ...        0.355 sec (=   0.006 min)  15.9 %
                             ****ORCA TERMINATED NORMALLY****
TOTAL RUN TIME: 0 days 0 hours 0 minutes 2 seconds 441 msec
