
                                 *****************
                                 * O   R   C   A *
                                 *****************

                                            #,                                       
                                            ###                                      
                                            ####                                     
                                            #####                                    
                                            ######                                   
                                           ########,                                 
                                     ,,################,,,,,                         
                               ,,#################################,,                 
                          ,,##########################################,,             
                       ,#########################################, ''#####,          
                    ,#############################################,,   '####,        
                  ,##################################################,,,,####,       
                ,###########''''           ''''###############################       
              ,#####''   ,,,,##########,,,,          '''####'''          '####       
            ,##' ,,,,###########################,,,                        '##       
           ' ,,###''''                  '''############,,,                           
         ,,##''                                '''############,,,,        ,,,,,,###''
      ,#''                                            '''#######################'''  
     '                                                          ''''####''''         
             ,#######,   #######,   ,#######,      ##                                
            ,#'     '#,  ##    ##  ,#'     '#,    #''#        ,####,   ,####,        
            ##       ##  ##   ,#'  ##            #'  '#       #'       #'  '#        
            ##       ##  #######   ##           ,######,      #####,   #    #        
            '#,     ,#'  ##    ##  '#,     ,#' ,#      #,     #,   #   #,  ,#        
             '#######'   ##     ##  '#######'  #'      '#     '####' # '####'        



                #########################################################
                #                        -***-                          #
                #          Department of theory and spectroscopy        #
                #                                                       #
                #                      Frank Neese                      #
                #                                                       #
                #     Directorship, Architecture, Infrastructure        #
                #                    SHARK, DRIVERS                     #
                #        Core code/Algorithms in most modules           #
                #                                                       #
                #        Max Planck Institute fuer Kohlenforschung      #
                #                Kaiser Wilhelm Platz 1                 #
                #                 D-45470 Muelheim/Ruhr                 #
                #                      Germany                          #
                #                                                       #
                #                  All rights reserved                  #
                #                        -***-                          #
                #########################################################


                         Program Version 6.0.1  -  RELEASE   -


 With contributions from (in alphabetic order):
[Max-Planck-Institut fuer Kohlenforschung]                               
  Daniel Aravena         : Magnetic Suceptibility                        
  Michael Atanasov       : Ab Initio Ligand Field Theory (pilot matlab implementation)
  Alexander A. Auer      : GIAO ZORA, VPT2 properties, NMR spectrum      
  Ute Becker             : All parallelization in ORCA, NUMFREQ, NUMCALC 
  Giovanni Bistoni       : ED, misc. LED, open-shell LED, HFLD           
  Martin Brehm           : Molecular dynamics                            
  Dmytro Bykov           : pre 5.0 version of the SCF Hessian            
  Marcos Casanova-Páez   : Triplet and SCS-CIS(D). UHF-(DLPNO)-IP/EA/STEOM-CCSD. UHF-CVS-IP/STEOM-CCSD   
  Vijay G. Chilkuri      : MRCI spin determinant printing, contributions to CSF-ICE 
  Pauline Colinet        : FMM embedding                                 
  Dipayan Datta          : RHF DLPNO-CCSD density                        
  Achintya Kumar Dutta   : EOM-CC, STEOM-CC                              
  Nicolas Foglia         : Exact transition moments, OPA infrastructure, MCD improvements    
  Dmitry Ganyushin       : Spin-Orbit,Spin-Spin,Magnetic field MRCI      
  Miquel Garcia-Rates    : C-PCM and meta-GGA Hessian, CCSD/C-PCM, Gaussian charge scheme 
  Tiago L. C. Gouveia    : GS-ROHF, GS-ROCIS                             
  Yang Guo               : DLPNO-NEVPT2, F12-NEVPT2, CIM, IAO-localization        
  Andreas Hansen         : Spin unrestricted coupled pair/coupled cluster methods 
  Ingolf Harden          : AUTO-CI MPn and infrastructure                
  Benjamin Helmich-Paris : MC-RPA, TRAH-(SCF,CASSCF), AVAS, COSX integrals, SCF dyn. polar. 
  Lee Huntington         : MR-EOM, pCC                                   
  Robert Izsak           : Overlap fitted RIJCOSX, COSX-SCS-MP3, EOM     
  Riya Kayal             : Wick's Theorem for AUTO-CI, AUTO-CI UHF-CCSDT 
  Emily Kempfer          : AUTO-CI, RHF CISDT and CCSDT                  
  Christian Kollmar      : KDIIS, OOCD, Brueckner-CCSD(T), CCSD density, CASPT2, CASPT2-K, improved NEVPT2 
  Axel Koslowski         : Symmetry handling                             
  Simone Kossmann        : meta-GGA functionals, TD-DFT gradient, OOMP2, (MP2 Hessian; deprecated post 5.0) 
  Lucas Lang             : DCDCAS                                        
  Marvin Lechner         : AUTO-CI (C++ implementation), FIC-MRCC        
  Spencer Leger          : CASSCF response                               
  Dagmar Lenk            : GEPOL surface, SMD, ORCA-2-JSON               
  Dimitrios Liakos       : Extrapolation schemes; Compound Job, initial MDCI parallelization 
  Dimitrios Manganas     : Further ROCIS development; embedding schemes. LFT, Crystal Embedding 
  Dimitrios Pantazis     : SARC Basis sets                               
  Anastasios Papadopoulos: AUTO-CI, single reference methods and gradients 
  Taras Petrenko         : pre 6.0 DFT Hessian and TD-DFT gradient, (ASA, deprecated), ECA, 1-Electron XAS/XES, NRVS 
  Peter Pinski           : DLPNO-MP2, DLPNO-MP2 Gradient                 
  Christoph Reimann      : Effective Core Potentials                     
  Marius Retegan         : Local ZFS, SOC                                
  Christoph Riplinger    : Optimizer, TS searches, QM/MM, DLPNO-CCSD(T), (RO)-DLPNO pert. Triples 
  Michael Roemelt        : Original ROCIS implementation                 
  Masaaki Saitow         : Open-shell DLPNO-CCSD energy and density      
  Barbara Sandhoefer     : DKH picture change effects                    
  Kantharuban Sivalingam : CASSCF convergence/infrastructure, NEVPT2 and variants, FIC-MRCI 
  Bernardo de Souza      : ESD, SOC TD-DFT                               
  Georgi L. Stoychev     : AutoAux, RI-MP2 NMR, DLPNO-MP2 response, X2C  
  Van Anh Tran           : RI-MP2 g-tensors                              
  Willem Van den Heuvel  : Paramagnetic NMR                              
  Zikuan Wang            : NOTCH, Electric field optimization            
  Frank Wennmohs         : Technical directorship and infrastructure     
  Hang Xu                : AUTO-CI-Response properties                   
                                                                         
[FACCTs GmbH]                                                            
  Markus Bursch, Miquel Garcia-Rates, Christoph Riplinger, Bernardo de Souza, Georgi L. Stoychev 
                                                                 
  APM, Basis sets (HGBS, AHGBS, def-TZVP (Ac-Lr), def2-XVPD (La-Lu)), CI-OPT, improved COSX, DLPNO-Multilevel,           
  DOCKER, DRACO, updates on ESD, GOAT, IRC, LR-CPCM, MBIS, meta-GGA TD-DFT gradient, ML-optimized integration grids, 
  MM, NACMEs, nearIR, NEB, NEB-TS, NL-DFT gradient (VV10), 2- and 3-layer-ONIOM, interface openCOSMO-RS, QMMM,   
  Crystal-QMMM, SF, symmetry and pop. for TD-DFT, r2SCAN hybrids, SOLVATOR                                   
                                                                         
[Other institutions]                                                     
  V. Asgeirsson          : NEB                                           
  Christoph Bannwarth    : sTDA-DFT, sTD-DFT, PBEh-3c, B97-3c, D3        
  Sebastian Ehlert       : rSCAN, r2SCAN, r2SCAN-3c, D4, dhf basis sets  
  Marvin Friede          : D4 for Fr, Ra, Ac-Lr                          
  Lars Goerigk           : TD-DFT with DH, B97 family of functionals     
  Stefan Grimme          : VdW corrections, initial TS optimization, DFT functionals, gCP, sTDA/sTD-DF 
  Waldemar Hujo          : DFT-NL                                        
  H. Jonsson             : NEB                                           
  Holger Kruse           : gCP                                           
  Marcel Mueller         : wB97X-3c, vDZP basis set                      
  Hagen Neugebauer       : wr2SCAN                                       
  Tobias Risthaus        : range-separated hybrid DFT                    
  Lukas Wittmann         : regularized MP2, r2SCAN double-hybrids, wr2SCAN        
                                                                         
We gratefully acknowledge several colleagues who have allowed us to      
interface, adapt or use parts of their codes:                            
  Ed Valeev, F. Pavosevic, A. Kumar             : LibInt (2-el integral package), F12 methods 
  Garnet Chan, S. Sharma, J. Yang, R. Olivares  : DMRG                   
  Ulf Ekstrom                                   : XCFun DFT Library      
  Mihaly Kallay                                 : mrcc  (arbitrary order and MRCC methods)
  Frank Weinhold                                : gennbo (NPA and NBO analysis)           
  Simon Mueller                                 : openCOSMO-RS                            
  Christopher J. Cramer and Donald G. Truhlar   : smd solvation model                     
  S Lehtola, MJT Oliveira, MAL Marques          : LibXC Library                           
  Liviu Ungur et al                             : ANISO software                          


 Your calculation uses the libint2 library for the computation of 2-el integrals
 For citations please refer to: http://libint.valeyev.net

 Your ORCA version has been built with support for libXC version: 6.2.2
 For citations please refer to: https://libxc.gitlab.io

 This ORCA versions uses:
   CBLAS   interface :  Fast vector & matrix operations
   LAPACKE interface :  Fast linear algebra routines
   SCALAPACK package :  Parallel linear algebra routines
   Shared memory     :  Shared parallel matrices
   BLAS/LAPACK       :  OpenBLAS 0.3.27  USE64BITINT DYNAMIC_ARCH NO_AFFINITY SkylakeX SINGLE_THREADED
        Core in use  :  SkylakeX
   Copyright (c) 2011-2014, The OpenBLAS Project


================================================================================

----- Orbital basis set information -----
Your calculation utilizes the basis: 6-31G*
   H-He, Li-Ne : W. J. Hehre, R. Ditchfield and J.A. Pople, J. Chem. Phys. 56, 2257 (1972).
                 Note: He and Ne are unpublished basis sets taken from the Gaussian program.
                 Note: Li and B from J. D. Dill and J. A. Pople, J. Chem. Phys. 62, 2921 (1975).
   Na - Ar     : M. M. Francl, W. J. Pietro, W. J. Hehre, J. S. Binkley, M. S. Gordon, 
                 D. J. DeFrees and J. A. Pople, J. Chem. Phys. 77, 3654 (1982).
   K - Zn      : V. A. Rassolov, J. A. Pople, M. A. Ratner, and T. L. Windus, J. Chem. Phys. 109, 1223 (1998).

================================================================================
                                        WARNINGS
                       Please study these warnings very carefully!
================================================================================


================================================================================
                                       INPUT FILE
================================================================================
NAME = frag.inp
|  1> !HF 6-31G* EnGrad
|  2> %pal nprocs 1 end
|  3> *xyz 0 1
|  4> O 21.31548000 47.19077000 40.87238000
|  5> H 22.11097000 46.98487000 41.16553000
|  6> H 20.96265000 46.41737000 40.67613000
|  7> O 21.78987000 47.25010000 37.48256000
|  8> H 21.67133000 47.22017000 38.34638000
|  9> H 21.14108000 47.76263000 37.20411000
| 10> O 19.10373000 45.58535000 40.48424000
| 11> H 18.38270000 45.25544000 40.12036000
| 12> H 18.82331000 45.89664000 41.24949000
| 13> O 21.99613000 48.36911000 43.54199000
| 14> H 21.97702000 49.24128000 43.53308000
| 15> H 21.46413000 48.14557000 42.88766000
| 16> *
| 17> 
| 18>                          ****END OF INPUT****
================================================================================

                     *******************************
                     * Energy+Gradient Calculation *
                     *******************************

---------------------------------
CARTESIAN COORDINATES (ANGSTROEM)
---------------------------------
  O     21.315480   47.190770   40.872380
  H     22.110970   46.984870   41.165530
  H     20.962650   46.417370   40.676130
  O     21.789870   47.250100   37.482560
  H     21.671330   47.220170   38.346380
  H     21.141080   47.762630   37.204110
  O     19.103730   45.585350   40.484240
  H     18.382700   45.255440   40.120360
  H     18.823310   45.896640   41.249490
  O     21.996130   48.369110   43.541990
  H     21.977020   49.241280   43.533080
  H     21.464130   48.145570   42.887660

----------------------------
CARTESIAN COORDINATES (A.U.)
----------------------------
  NO LB      ZA    FRAG     MASS         X           Y           Z
   0 O     8.0000    0    15.999   40.280420   89.177631   77.237605
   1 H     1.0000    0     1.008   41.783678   88.788537   77.791578
   2 H     1.0000    0     1.008   39.613668   87.716117   76.866746
   3 O     8.0000    0    15.999   41.176887   89.289749   70.831773
   4 H     1.0000    0     1.008   40.952879   89.233189   72.464156
   5 H     1.0000    0     1.008   39.950851   90.258290   70.305579
   6 O     8.0000    0    15.999   36.100818   86.143827   76.504126
   7 H     1.0000    0     1.008   34.738269   85.520388   75.816493
   8 H     1.0000    0     1.008   35.570901   86.732080   77.950239
   9 O     8.0000    0    15.999   41.566662   91.404371   82.282436
  10 H     1.0000    0     1.008   41.530549   93.052534   82.265599
  11 H     1.0000    0     1.008   40.561327   90.981942   81.045932

--------------------------------
INTERNAL COORDINATES (ANGSTROEM)
--------------------------------
 O      0   0   0     0.000000000000     0.00000000     0.00000000
 H      1   0   0     0.872431127712     0.00000000     0.00000000
 H      1   2   0     0.872439471482   103.59872274     0.00000000
 O      3   1   2     3.402443464071    84.02176965   259.51268005
 H      4   3   1     0.872429096775    13.88503522     2.34365367
 H      4   3   1     0.872439033687   105.22135928   277.23706635
 O      3   1   2     2.045644792944   138.51760024   155.95761940
 H      7   3   1     0.872429666735   160.72623553   104.87007073
 H      7   3   1     0.872435901944    93.70851241   310.81868034
 O      2   1   3     2.752611620770    97.66454154   232.09709776
 H     10   2   1     0.872424832923   119.65867956   292.19524676
 H     10   2   1     0.872434456277    41.32939881     8.44035756

---------------------------
INTERNAL COORDINATES (A.U.)
---------------------------
 O      0   0   0     0.000000000000     0.00000000     0.00000000
 H      1   0   0     1.648655902083     0.00000000     0.00000000
 H      1   2   0     1.648671669524   103.59872274     0.00000000
 O      3   1   2     6.429686333245    84.02176965   259.51268005
 H      4   3   1     1.648652064169    13.88503522     2.34365367
 H      4   3   1     1.648670842211   105.22135928   277.23706635
 O      3   1   2     3.865708425947   138.51760024   155.95761940
 H      7   3   1     1.648653141238   160.72623553   104.87007073
 H      7   3   1     1.648664924074    93.70851241   310.81868034
 O      2   1   3     5.201682116305    97.66454154   232.09709776
 H     10   2   1     1.648644006656   119.65867956   292.19524676
 H     10   2   1     1.648662192161    41.32939881     8.44035756

---------------------
BASIS SET INFORMATION
---------------------
There are 2 groups of distinct atoms

 Group   1 Type O   : 10s4p1d contracted to 3s2p1d pattern {631/31/1}
 Group   2 Type H   : 4s contracted to 2s pattern {31}

Atom   0O    basis set group =>   1
Atom   1H    basis set group =>   2
Atom   2H    basis set group =>   2
Atom   3O    basis set group =>   1
Atom   4H    basis set group =>   2
Atom   5H    basis set group =>   2
Atom   6O    basis set group =>   1
Atom   7H    basis set group =>   2
Atom   8H    basis set group =>   2
Atom   9O    basis set group =>   1
Atom  10H    basis set group =>   2
Atom  11H    basis set group =>   2
------------------------------------------------------------------------------
                             ORCA STARTUP CALCULATIONS
------------------------------------------------------------------------------
------------------------------------------------------------------------------
                   ___                                                        
                  /   \      - P O W E R E D   B Y -                         
                 /     \                                                     
                 |  |  |   _    _      __       _____    __    __             
                 |  |  |  | |  | |    /  \     |  _  \  |  |  /  |          
                  \  \/   | |  | |   /    \    | | | |  |  | /  /          
                 / \  \   | |__| |  /  /\  \   | |_| |  |  |/  /          
                |  |  |   |  __  | /  /__\  \  |    /   |      \           
                |  |  |   | |  | | |   __   |  |    \   |  |\   \          
                \     /   | |  | | |  |  |  |  | |\  \  |  | \   \       
                 \___/    |_|  |_| |__|  |__|  |_| \__\ |__|  \__/        
                                                                              
                      - O R C A' S   B I G   F R I E N D -                    
                                      &                                       
                       - I N T E G R A L  F E E D E R -                       
                                                                              
 v1 FN, 2020, v2 2021, v3 2022-2024                                           
------------------------------------------------------------------------------


----------------------
SHARK INTEGRAL PACKAGE
----------------------

Number of atoms                             ...     12
Number of basis functions                   ...     72
Number of shells                            ...     40
Maximum angular momentum                    ...      2
Integral batch strategy                     ... SHARK/LIBINT Hybrid
RI-J (if used) integral strategy            ... SPLIT-RIJ (Revised 2003 algorithm where possible)
Printlevel                                  ...      1
Contraction scheme used                     ... SEGMENTED contraction
Prescreening option                         ... SCHWARTZ
   Thresh                                   ... 2.500e-11
   Tcut                                     ... 2.500e-12
   Tpresel                                  ... 2.500e-12 
Coulomb Range Separation                    ... NOT USED
Exchange Range Separation                   ... NOT USED
Multipole approximations                    ... NOT USED
Finite Nucleus Model                        ... NOT USED
CABS basis                                  ... NOT available
Auxiliary Coulomb fitting basis             ... NOT available
Auxiliary J/K fitting basis                 ... NOT available
Auxiliary Correlation fitting basis         ... NOT available
Auxiliary 'external' fitting basis          ... NOT available

Checking pre-screening integrals            ... done (  0.0 sec) Dimension = 40
Check shell pair data                       ... done (  0.0 sec)
Shell pair information
Shell pair cut-off parameter TPreSel        ...   2.5e-12
Total number of shell pairs                 ...       820
Shell pairs after pre-screening             ...       703
Total number of primitive shell pairs       ...      4386
Primitive shell pairs kept                  ...      2461
          la=0 lb=0:    348 shell pairs
          la=1 lb=0:    193 shell pairs
          la=1 lb=1:     33 shell pairs
          la=2 lb=0:     93 shell pairs
          la=2 lb=1:     28 shell pairs
          la=2 lb=2:      8 shell pairs

Calculating one electron integrals          ... done (  0.0 sec)
Calculating Nuclear repulsion               ... done (  0.0 sec) ENN=    124.288964312356 Eh

Diagonalization of the overlap matrix:
Smallest eigenvalue                        ... 3.740e-02
Time for diagonalization                   ...    0.001 sec
Threshold for overlap eigenvalues          ... 1.000e-07
Number of eigenvalues below threshold      ... 0
Time for construction of square roots      ...    0.005 sec
Total time needed                          ...    0.011 sec

-------------------
DFT GRID GENERATION
-------------------

General Integration Accuracy     IntAcc      ... 4.388
Radial Grid Type                 RadialGrid  ... OptM3 with GC (2021)
Angular Grid (max. ang.)         AngularGrid ... 4 (Lebedev-302)
Angular grid pruning method      GridPruning ... 4 (adaptive)
Weight generation scheme         WeightScheme... mBecke (2022)
Basis function cutoff            BFCut       ... 1.0000e-11
Integration weight cutoff        WCut        ... 1.0000e-14
Partially contracted basis set               ... off
Rotationally invariant grid construction     ... off
Angular grids for H and He will be reduced by one unit

Total number of grid points                  ...    50740
Total number of batches                      ...      798
Average number of points per batch           ...       63
Average number of grid points per atom       ...     4228
Initializing property integral containers    ... done (  0.0 sec)

SHARK setup successfully completed in   0.5 seconds

Maximum memory used throughout the entire STARTUP-calculation: 17.4 MB
-------------------------------------------------------------------------------
                                 ORCA GUESS
                   Start orbitals & Density for SCF / CASSCF
-------------------------------------------------------------------------------

------------
SCF SETTINGS
------------
Hamiltonian:
 Ab initio Hamiltonian  Method          .... Hartree-Fock(GTOs)


General Settings:
 Integral files         IntName         .... frag
 Hartree-Fock type      HFTyp           .... RHF
 Total Charge           Charge          ....    0
 Multiplicity           Mult            ....    1
 Number of Electrons    NEL             ....   40
 Basis Dimension        Dim             ....   72
 Nuclear Repulsion      ENuc            ....    124.2889643124 Eh

Convergence Acceleration:
 AO-DIIS                CNVDIIS         .... on
   Start iteration      DIISMaxIt       ....    12
   Startup error        DIISStart       ....  0.200000
   # of expansion vecs  DIISMaxEq       ....     5
   Bias factor          DIISBfac        ....   1.050
   Max. coefficient     DIISMaxC        ....  10.000
 MO-DIIS                CNVKDIIS        .... off
 Trust-Rad. Augm. Hess. CNVTRAH         .... auto
   Auto Start mean grad. ratio tolernc. ....  1.125000
   Auto Start start iteration           ....    50
   Auto Start num. interpolation iter.  ....    10
   Max. Number of Micro iterations      ....    24
   Max. Number of Macro iterations      .... Maxiter - #DIIS iter
   Number of Davidson start vectors     ....     2
   Converg. threshold    (grad. norm)   ....   1.000e-05
   Grad. Scal. Fac. for Micro threshold ....   0.100
   Minimum threshold for Micro iter.    ....   1.000e-02
   NR start threshold (gradient norm)   ....   1.000e-04
   Initial trust radius                 ....   0.400
   Minimum AH scaling param. (alpha)    ....   1.000
   Maximum AH scaling param. (alpha)    .... 1000.000
   Quad. conv. algorithm                .... NR
   White noise on init. David. guess    .... on
   Maximum white noise                  ....   0.010
   Pseudo random numbers                .... off
   Inactive MOs                         .... canonical
   Orbital update algorithm             .... Taylor
   Preconditioner                       .... Diag
   Full preconditioner red. dimension   ....   250
 SOSCF                  CNVSOSCF        .... on
   Start iteration      SOSCFMaxIt      ....   150
   Startup grad/error   SOSCFStart      ....  0.003300
   Hessian update       SOSCFHessUp     .... L-BFGS
 Level Shifting         CNVShift        .... on
   Level shift para.    LevelShift      ....    0.2500
   Turn off err/grad.   ShiftErr        ....    0.0010
 Zerner damping         CNVZerner       .... off
 Static damping         CNVDamp         .... on
   Fraction old density DampFac         ....    0.7000
   Max. Damping (<1)    DampMax         ....    0.9800
   Min. Damping (>=0)   DampMin         ....    0.0000
   Turn off err/grad.   DampErr         ....    0.1000

SCF Procedure:
 Maximum # iterations   MaxIter         ....   125
 SCF integral mode      SCFMode         .... Direct
   Integral package                     .... SHARK and LIBINT hybrid scheme
 Reset frequency        DirectResetFreq ....    20
 Integral Threshold     Thresh          ....  2.500e-11 Eh
 Primitive CutOff       TCut            ....  2.500e-12 Eh

Convergence Tolerance:
 Convergence Check Mode ConvCheckMode   .... Total+1el-Energy
 Convergence forced     ConvForced      .... 0
 Energy Change          TolE            ....  1.000e-08 Eh
 1-El. energy change                    ....  1.000e-05 Eh
 Orbital Gradient       TolG            ....  1.000e-05
 Orbital Rotation angle TolX            ....  1.000e-05
 DIIS Error             TolErr          ....  5.000e-07

------------------------------
INITIAL GUESS: MODEL POTENTIAL
------------------------------
Loading Hartree-Fock densities                     ... done
Calculating cut-offs                               ... done
Initializing the effective Hamiltonian             ... done
Setting up the integral package (SHARK)            ... done
Starting the Coulomb interaction                   ... done (   0.0 sec)
Making the grid                                    ... done (   0.1 sec)
Mapping shells                                     ... done
Starting the XC term evaluation                    ... done (   0.0 sec)
Transforming the Hamiltonian                       ... done (   0.0 sec)
Diagonalizing the Hamiltonian                      ... done (   0.0 sec)
Back transforming the eigenvectors                 ... done (   0.0 sec)
Now organizing SCF variables                       ... done
                      ------------------
                      INITIAL GUESS DONE (   0.1 sec)
                      ------------------
             **** ENERGY FILE WAS UPDATED (frag.en.tmp) ****
Finished Guess after   0.2 sec
Maximum memory used throughout the entire GUESS-calculation: 7.4 MB

-------------------------------------------------------------------------------------------
                                      ORCA LEAN-SCF
                              memory conserving SCF solver
-------------------------------------------------------------------------------------------

----------------------------------------D-I-I-S--------------------------------------------
Iteration    Energy (Eh)           Delta-E    RMSDP     MaxDP     DIISErr   Damp  Time(sec)
-------------------------------------------------------------------------------------------
               ***  Starting incremental Fock matrix formation  ***
    1    -303.6036247297082014     0.00e+00  6.13e-03  7.23e-02  3.31e-01  0.700   0.2
    2    -303.7565784367593551    -1.53e-01  4.17e-03  4.97e-02  2.02e-01  0.700   0.2
                               ***Turning on AO-DIIS***
    3    -303.8392965368275327    -8.27e-02  1.65e-03  2.18e-02  1.13e-01  0.700   0.2
    4    -303.8893091879333497    -5.00e-02  1.01e-03  1.39e-02  7.65e-02  0.700   0.1
    5    -303.9223675365527697    -3.31e-02  2.35e-03  3.30e-02  5.43e-02  0.000   0.1
    6    -303.9960914511670467    -7.37e-02  1.83e-04  1.85e-03  3.33e-03  0.000   0.2
                              *** Initializing SOSCF ***
---------------------------------------S-O-S-C-F--------------------------------------
Iteration    Energy (Eh)           Delta-E    RMSDP     MaxDP     MaxGrad    Time(sec)
--------------------------------------------------------------------------------------
    7    -303.9961513947972662    -5.99e-05  1.11e-04  9.57e-04  1.18e-03     0.2
               *** Restarting incremental Fock matrix formation ***
    8    -303.9961638147723875    -1.24e-05  4.66e-05  4.66e-04  2.48e-04     0.2
    9    -303.9961651594259138    -1.34e-06  2.98e-05  2.83e-04  9.11e-05     0.2
   10    -303.9961654127681641    -2.53e-07  3.55e-06  4.77e-05  2.36e-05     0.1
   11    -303.9961654234446655    -1.07e-08  9.83e-07  1.14e-05  5.85e-06     0.1
   12    -303.9961654242513873    -8.07e-10  1.69e-07  2.69e-06  8.23e-07     0.1
                 **** Energy Check signals convergence ****

               *****************************************************
               *                     SUCCESS                       *
               *           SCF CONVERGED AFTER  12 CYCLES          *
               *****************************************************

             **** ENERGY FILE WAS UPDATED (frag.en.tmp) ****

----------------
TOTAL SCF ENERGY
----------------

Total Energy       :       -303.99616542425139 Eh           -8272.15621 eV

Components:
Nuclear Repulsion  :        124.28896431235648 Eh            3382.07466 eV
Electronic Energy  :       -428.28512973660787 Eh          -11654.23087 eV
One Electron Energy:       -666.15083033742110 Eh          -18126.88565 eV
Two Electron Energy:        237.86570060081323 Eh            6472.65478 eV

Virial components:
Potential Energy   :       -609.52385337890223 Eh          -16585.98727 eV
Kinetic Energy     :        305.52768795465079 Eh            8313.83106 eV
Virial Ratio       :          1.99498728727124

---------------
SCF CONVERGENCE
---------------

  Last Energy change         ...    8.0672e-10  Tolerance :   1.0000e-08
  Last MAX-Density change    ...    2.6915e-06  Tolerance :   1.0000e-07
  Last RMS-Density change    ...    1.6925e-07  Tolerance :   5.0000e-09
  Last DIIS Error            ...    1.1822e-03  Tolerance :   5.0000e-07
  Last Orbital Gradient      ...    8.2273e-07  Tolerance :   1.0000e-05
  Last Orbital Rotation      ...    7.9333e-07  Tolerance :   1.0000e-05


----------------
ORBITAL ENERGIES
----------------

  NO   OCC          E(Eh)            E(eV) 
   0   2.0000     -20.567574      -559.6721 
   1   2.0000     -20.552598      -559.2646 
   2   2.0000     -20.527759      -558.5887 
   3   2.0000     -20.520284      -558.3853 
   4   2.0000      -1.422355       -38.7042 
   5   2.0000      -1.404886       -38.2289 
   6   2.0000      -1.381635       -37.5962 
   7   2.0000      -1.374040       -37.3895 
   8   2.0000      -0.790599       -21.5133 
   9   2.0000      -0.766789       -20.8654 
  10   2.0000      -0.742901       -20.2154 
  11   2.0000      -0.737249       -20.0616 
  12   2.0000      -0.623781       -16.9740 
  13   2.0000      -0.604666       -16.4538 
  14   2.0000      -0.580284       -15.7903 
  15   2.0000      -0.573176       -15.5969 
  16   2.0000      -0.534983       -14.5576 
  17   2.0000      -0.519717       -14.1422 
  18   2.0000      -0.495917       -13.4946 
  19   2.0000      -0.488520       -13.2933 
  20   0.0000       0.198019         5.3884 
  21   0.0000       0.235492         6.4081 
  22   0.0000       0.258513         7.0345 
  23   0.0000       0.288241         7.8434 
  24   0.0000       0.306995         8.3538 
  25   0.0000       0.363500         9.8914 
  26   0.0000       0.387967        10.5571 
  27   0.0000       0.427862        11.6427 
  28   0.0000       0.996237        27.1090 
  29   0.0000       1.061854        28.8945 
  30   0.0000       1.071063        29.1451 
*Only the first 10 virtual orbitals were printed.

                    ********************************
                    * MULLIKEN POPULATION ANALYSIS *
                    ********************************

-----------------------
MULLIKEN ATOMIC CHARGES
-----------------------
   0 O :   -0.928274
   1 H :    0.453749
   2 H :    0.491815
   3 O :   -0.908792
   4 H :    0.453775
   5 H :    0.439893
   6 O :   -0.899107
   7 H :    0.456773
   8 H :    0.454305
   9 O :   -0.920406
  10 H :    0.441410
  11 H :    0.464860
Sum of atomic charges:   -0.0000000

--------------------------------
MULLIKEN REDUCED ORBITAL CHARGES
--------------------------------
  0 O s       :     3.861451  s :     3.861451
      pz      :     1.894923  p :     5.034167
      px      :     1.498729
      py      :     1.640515
      dz2     :     0.004584  d :     0.032656
      dxz     :     0.003146
      dyz     :     0.003612
      dx2y2   :     0.012806
      dxy     :     0.008508

  1 H s       :     0.546251  s :     0.546251

  2 H s       :     0.508185  s :     0.508185

  3 O s       :     3.847921  s :     3.847921
      pz      :     1.467589  p :     5.027770
      px      :     1.731958
      py      :     1.828223
      dz2     :     0.015042  d :     0.033100
      dxz     :     0.004312
      dyz     :     0.001172
      dx2y2   :     0.002622
      dxy     :     0.009952

  4 H s       :     0.546225  s :     0.546225

  5 H s       :     0.560107  s :     0.560107

  6 O s       :     3.843243  s :     3.843243
      pz      :     1.518168  p :     5.023723
      px      :     1.646000
      py      :     1.859555
      dz2     :     0.006732  d :     0.032141
      dxz     :     0.010382
      dyz     :     0.002607
      dx2y2   :     0.005822
      dxy     :     0.006598

  7 H s       :     0.543227  s :     0.543227

  8 H s       :     0.545695  s :     0.545695

  9 O s       :     3.851807  s :     3.851807
      pz      :     1.749683  p :     5.035518
      px      :     1.822194
      py      :     1.463641
      dz2     :     0.007163  d :     0.033081
      dxz     :     0.010327
      dyz     :     0.001750
      dx2y2   :     0.012242
      dxy     :     0.001599

 10 H s       :     0.558590  s :     0.558590

 11 H s       :     0.535140  s :     0.535140



                     *******************************
                     * LOEWDIN POPULATION ANALYSIS *
                     *******************************

----------------------
LOEWDIN ATOMIC CHARGES
----------------------
   0 O :   -0.625748
   1 H :    0.317938
   2 H :    0.314302
   3 O :   -0.633927
   4 H :    0.309340
   5 H :    0.311883
   6 O :   -0.615564
   7 H :    0.319802
   8 H :    0.318910
   9 O :   -0.637455
  10 H :    0.313278
  11 H :    0.307241

-------------------------------
LOEWDIN REDUCED ORBITAL CHARGES
-------------------------------
  0 O s       :     3.550846  s :     3.550846
      pz      :     1.891813  p :     5.034501
      px      :     1.496323
      py      :     1.646364
      dz2     :     0.005206  d :     0.040402
      dxz     :     0.004099
      dyz     :     0.004227
      dx2y2   :     0.016116
      dxy     :     0.010755

  1 H s       :     0.682062  s :     0.682062

  2 H s       :     0.685698  s :     0.685698

  3 O s       :     3.552351  s :     3.552351
      pz      :     1.466836  p :     5.040128
      px      :     1.741017
      py      :     1.832275
      dz2     :     0.019591  d :     0.041449
      dxz     :     0.005434
      dyz     :     0.001642
      dx2y2   :     0.002721
      dxy     :     0.012061

  4 H s       :     0.690660  s :     0.690660

  5 H s       :     0.688117  s :     0.688117

  6 O s       :     3.548562  s :     3.548562
      pz      :     1.518659  p :     5.026329
      px      :     1.651587
      py      :     1.856083
      dz2     :     0.009020  d :     0.040673
      dxz     :     0.013255
      dyz     :     0.003676
      dx2y2   :     0.006551
      dxy     :     0.008171

  7 H s       :     0.680198  s :     0.680198

  8 H s       :     0.681090  s :     0.681090

  9 O s       :     3.551641  s :     3.551641
      pz      :     1.747312  p :     5.044618
      px      :     1.827051
      py      :     1.470254
      dz2     :     0.008902  d :     0.041197
      dxz     :     0.012189
      dyz     :     0.002254
      dx2y2   :     0.015914
      dxy     :     0.001937

 10 H s       :     0.686722  s :     0.686722

 11 H s       :     0.692759  s :     0.692759



                      *****************************
                      * MAYER POPULATION ANALYSIS *
                      *****************************

  NA   - Mulliken gross atomic population
  ZA   - Total nuclear charge
  QA   - Mulliken gross atomic charge
  VA   - Mayer's total valence
  BVA  - Mayer's bonded valence
  FA   - Mayer's free valence

  ATOM       NA         ZA         QA         VA         BVA        FA
  0 O      8.9283     8.0000    -0.9283     1.5498     1.5498    -0.0000
  1 H      0.5463     1.0000     0.4537     0.7635     0.7635    -0.0000
  2 H      0.5082     1.0000     0.4918     0.7352     0.7352    -0.0000
  3 O      8.9088     8.0000    -0.9088     1.5320     1.5320    -0.0000
  4 H      0.5462     1.0000     0.4538     0.7757     0.7757    -0.0000
  5 H      0.5601     1.0000     0.4399     0.7712     0.7712    -0.0000
  6 O      8.8991     8.0000    -0.8991     1.5636     1.5636    -0.0000
  7 H      0.5432     1.0000     0.4568     0.7594     0.7594    -0.0000
  8 H      0.5457     1.0000     0.4543     0.7593     0.7593    -0.0000
  9 O      8.9204     8.0000    -0.9204     1.5234     1.5234    -0.0000
 10 H      0.5586     1.0000     0.4414     0.7714     0.7714    -0.0000
 11 H      0.5351     1.0000     0.4649     0.7658     0.7658    -0.0000

  Mayer bond orders larger than 0.100000
B(  0-O ,  1-H ) :   0.7634 B(  0-O ,  2-H ) :   0.7100 B(  3-O ,  4-H ) :   0.7504 
B(  3-O ,  5-H ) :   0.7814 B(  6-O ,  7-H ) :   0.7671 B(  6-O ,  8-H ) :   0.7654 
B(  9-O , 10-H ) :   0.7808 B(  9-O , 11-H ) :   0.7346 

-------
TIMINGS
-------

Total SCF time: 0 days 0 hours 0 min 1 sec 

Total time                  ....       1.947 sec
Sum of individual times     ....       1.875 sec  ( 96.3%)

SCF preparation             ....       0.060 sec  (  3.1%)
Fock matrix formation       ....       1.570 sec  ( 80.6%)
  Startup                   ....       0.024 sec  (  1.5% of F)
  Coulomb+Exchange Fock     ....       1.456 sec  ( 92.7% of F)
Diagonalization             ....       0.000 sec  (  0.0%)
Density matrix formation    ....       0.070 sec  (  3.6%)
Total Energy calculation    ....       0.023 sec  (  1.2%)
Population analysis         ....       0.013 sec  (  0.7%)
Orbital Transformation      ....       0.013 sec  (  0.7%)
Orbital Orthonormalization  ....       0.000 sec  (  0.0%)
DIIS solution               ....       0.089 sec  (  4.6%)
SOSCF solution              ....       0.038 sec  (  1.9%)
Finished LeanSCF after   2.0 sec

Maximum memory used throughout the entire LEANSCF-calculation: 8.3 MB

-------------------------   --------------------
FINAL SINGLE POINT ENERGY      -303.996165424251
-------------------------   --------------------

------------------------------------------------------------------------------
                         ORCA SCF GRADIENT CALCULATION
------------------------------------------------------------------------------

Nuc. rep. gradient        (SHARK) ... done (  0.0 sec)
HCore & Overlap gradient  (SHARK) ... done (  0.0 sec)
Two-electron gradient     (SHARK) ... done (  0.5 sec)

------------------
CARTESIAN GRADIENT
------------------

   1   O   :    0.046254927   -0.116410682    0.010828180
   2   H   :   -0.108273116    0.017038554   -0.039372319
   3   H   :    0.059139516    0.097854220    0.030255456
   4   O   :   -0.089073150    0.056738231    0.069839367
   5   H   :    0.008677312    0.007728082   -0.115537829
   6   H   :    0.080621854   -0.065147129    0.043676433
   7   O   :   -0.114329288   -0.000088917    0.044982436
   8   H   :    0.087705265    0.046394984    0.056432141
   9   H   :    0.028476224   -0.044349168   -0.102004079
  10   O   :   -0.064636415    0.074912839   -0.078709023
  11   H   :   -0.003781810   -0.112780646   -0.005679225
  12   H   :    0.069218681    0.038109632    0.085288461

Difference to translation invariance:
           :   -0.0000000000   -0.0000000001   -0.0000000000

Difference to rotation invariance:
           :   -0.0000000323    0.0000003407    0.0000000229

Norm of the Cartesian gradient     ...    0.4112197400
RMS gradient                       ...    0.0685366233
MAX gradient                       ...    0.1164106822

-------
TIMINGS
-------

Total SCF gradient time     ....        0.559 sec

Densities                   ....       0.000 sec  (  0.0%)
One electron gradient       ....       0.036 sec  (  6.5%)
Two electron gradient       ....       0.522 sec  ( 93.4%)

Maximum memory used throughout the entire SCFGRAD-calculation: 14.1 MB

------------------------------------------------------------------------------
                              ORCA PROPERTY CALCULATIONS
------------------------------------------------------------------------------

GBWName                                 ... frag.gbw
Number of atoms                         ...     12
Number of basis functions               ...     72
Max core memory                         ...   1024 MB

Electric properties:
Dipole moment                           ... YES
Quadrupole moment                       ...  NO
Static polarizability (Dipole/Dipole)   ...  NO
Static polarizability (Dipole/Quad.)    ...  NO
Static polarizability (Quad./Quad.)     ...  NO
Static polarizability (Velocity)        ...  NO

Atomic electric properties:
Dipole moment                           ...  NO
Quadrupole moment                       ...  NO
Static polarizability                   ...  NO

Choice of electric origin               ... Center of mass
Position of electric origin             ...    39.731574    89.007419    76.725098

General magnetic properties:
Magnetizability                         ...  NO

EPR properties:
g-Tensor (aka g-matrix)                 ...  NO
Zero-Field splitting spin-orbit         ...  NO
Zero-field splitting spin-spin          ...  NO
Hyperfine couplings                     ...  NO (   0 nuclei)
Quadrupole couplings                    ...  NO (   0 nuclei)
Contact density                         ...  NO (   0 nuclei)

NMR properties:
Chemical shifts                         ...  NO (   0 nuclei)
Spin-rotation constants                 ...  NO (   0 nuclei)
Spin-spin couplings                     ...  NO (   0 nuclei,    0 pairs)

Choice of magnetic origin               ... GIAO
Position of magnetic origin             ...     0.000000     0.000000     0.000000

Properties with geometric perturbations:
SCF Hessian                             ...  NO
IR spectrum                             ...  NO
VCD spectrum                            ...  NO
X-ray spectroscopy properties:
SCF XES/XAS/RIXS spectra                ...  NO


-------------
DIPOLE MOMENT
-------------

Method             : SCF
Type of density    : Electron Density
Multiplicity       :   1
Irrep              :   0
Energy             :  -303.9961654242513873 Eh
Relativity type    : 
Basis              : AO
                                X                 Y                 Z
Electronic contribution:     -0.031872245      -0.113324548      -0.023422468
Nuclear contribution   :     -1.562532358       0.110961996       0.349924412
                        -----------------------------------------
Total Dipole Moment    :     -1.594404603      -0.002362552       0.326501944
                        -----------------------------------------
Magnitude (a.u.)       :      1.627493514
Magnitude (Debye)      :      4.136759760



--------------------
Rotational spectrum 
--------------------
 
Rotational constants in cm-1:             0.108583             0.048353             0.033833 
Rotational constants in MHz :          3255.245308          1449.593147          1014.295103 

Dipole components along the rotational axes: 
x,y,z [a.u.] :     0.088633    -1.325262     0.940510 
x,y,z [Debye]:     0.225287    -3.368548     2.390587 

 

Dipole moment calculation done in   0.0 sec 

Maximum memory used throughout the entire PROP-calculation: 2.7 MB

--------------------------------
SUGGESTED CITATIONS FOR THIS RUN
--------------------------------

Below you find a list of papers that are relevant to this ORCA run
We neither can nor want to force you to cite these papers, but we appreciate if you do
You receive ORCA, which is the product of decades of hard work by many enthusiastic individuals, for free
The only thing we kindly ask in return is that you cite our papers,
We deeply appreciate it, if you show your appreciation for ORCA by not just citing the generic ORCA reference.

Please note that relegating all ORCA citations to the supporting information does *not* help us.
SI sections are not indexed - citations you put there will not count into any citation statistics
But we need these citations in order to attract the funding resources that allow us to do what we are doing

Therefore, if you are a happy ORCA user, please consider citing a few of the papers listed below in the main body of your paper

In addition to the list printed below, the program has created the file frag.bibtex that contains the list in bibtex format
You can import this file easily into all common literature databanks and citation aid programs


List of essential papers. We consider these as the minimum necessary citations

  1. Neese,F.
     Software update: the ORCA program system, version 5.0
     WIRES Comput. Molec. Sci., 2022 12(1)e1606
     doi.org/10.1002/wcms.1606

List of papers to cite with high priority. The work reported in these papers was absolutely
necessary for this run to complete.
Our perspective: the developers of density functionals and basis sets usually get cited in chemistry papers
Good! But without the algorithms to do something with them, the functionals or basis sets would not do anything.
Hence, in our opinion, the algorithm design and method developments papers are equally worthy of getting cited

  1. Neese,F.
     The SHARK Integral Generation and Digestion System
     J. Comp. Chem., 2022  1-16
     doi.org/10.1002/jcc.26942

List of suggested additional citations. These are papers that are important in the 'surrounding' of 
of this run, or papers that preceded the highly important papers. If you like your results we are grateful for a citation.

  1. Neese,F.
     The ORCA program system
     WIRES Comput. Molec. Sci., 2012 2(1)73-78
     doi.org/10.1002/wcms.81
  2. Neese,F.
     Software update: the ORCA program system, version 4.0
     WIRES Comput. Molec. Sci., 2018 8(1)1-6
     doi.org/10.1002/wcms.1327
  3. Neese,F.; Wennmohs,F.; Becker,U.; Riplinger,C.
     The ORCA quantum chemistry program package
     J. Chem. Phys., 2020 152 Art. No. L224108
     doi.org/10.1063/5.0004608

List of optional additional citations

  1. Neese,F.
     Approximate second-order SCF convergence for spin unrestricted wavefunctions
     Chem. Phys. Lett., 2000 325(1-3)93-98
     doi.org/10.1016/s0009-2614(00)00662-x

Timings for individual modules:

Sum of individual times          ...        3.425 sec (=   0.057 min)
Startup calculation              ...        0.518 sec (=   0.009 min)  15.1 %
SCF iterations                   ...        2.226 sec (=   0.037 min)  65.0 %
Property calculations            ...        0.052 sec (=   0.001 min)   1.5 %
SCF Gradient evaluation          ...        0.629 sec (=   0.010 min)  18.4 %
                             ****ORCA TERMINATED NORMALLY****
TOTAL RUN TIME: 0 days 0 hours 0 minutes 3 seconds 625 msec
