
                                 *****************
                                 * O   R   C   A *
                                 *****************

                                            #,                                       
                                            ###                                      
                                            ####                                     
                                            #####                                    
                                            ######                                   
                                           ########,                                 
                                     ,,################,,,,,                         
                               ,,#################################,,                 
                          ,,##########################################,,             
                       ,#########################################, ''#####,          
                    ,#############################################,,   '####,        
                  ,##################################################,,,,####,       
                ,###########''''           ''''###############################       
              ,#####''   ,,,,##########,,,,          '''####'''          '####       
            ,##' ,,,,###########################,,,                        '##       
           ' ,,###''''                  '''############,,,                           
         ,,##''                                '''############,,,,        ,,,,,,###''
      ,#''                                            '''#######################'''  
     '                                                          ''''####''''         
             ,#######,   #######,   ,#######,      ##                                
            ,#'     '#,  ##    ##  ,#'     '#,    #''#        ,####,   ,####,        
            ##       ##  ##   ,#'  ##            #'  '#       #'       #'  '#        
            ##       ##  #######   ##           ,######,      #####,   #    #        
            '#,     ,#'  ##    ##  '#,     ,#' ,#      #,     #,   #   #,  ,#        
             '#######'   ##     ##  '#######'  #'      '#     '####' # '####'        



                #########################################################
                #                        -***-                          #
                #          Department of theory and spectroscopy        #
                #                                                       #
                #                      Frank Neese                      #
                #                                                       #
                #     Directorship, Architecture, Infrastructure        #
                #                    SHARK, DRIVERS                     #
                #        Core code/Algorithms in most modules           #
                #                                                       #
                #        Max Planck Institute fuer Kohlenforschung      #
                #                Kaiser Wilhelm Platz 1                 #
                #                 D-45470 Muelheim/Ruhr                 #
                #                      Germany                          #
                #                                                       #
                #                  All rights reserved                  #
                #                        -***-                          #
                #########################################################


                         Program Version 6.0.1  -  RELEASE   -


 With contributions from (in alphabetic order):
[Max-Planck-Institut fuer Kohlenforschung]                               
  Daniel Aravena         : Magnetic Suceptibility                        
  Michael Atanasov       : Ab Initio Ligand Field Theory (pilot matlab implementation)
  Alexander A. Auer      : GIAO ZORA, VPT2 properties, NMR spectrum      
  Ute Becker             : All parallelization in ORCA, NUMFREQ, NUMCALC 
  Giovanni Bistoni       : ED, misc. LED, open-shell LED, HFLD           
  Martin Brehm           : Molecular dynamics                            
  Dmytro Bykov           : pre 5.0 version of the SCF Hessian            
  Marcos Casanova-Páez   : Triplet and SCS-CIS(D). UHF-(DLPNO)-IP/EA/STEOM-CCSD. UHF-CVS-IP/STEOM-CCSD   
  Vijay G. Chilkuri      : MRCI spin determinant printing, contributions to CSF-ICE 
  Pauline Colinet        : FMM embedding                                 
  Dipayan Datta          : RHF DLPNO-CCSD density                        
  Achintya Kumar Dutta   : EOM-CC, STEOM-CC                              
  Nicolas Foglia         : Exact transition moments, OPA infrastructure, MCD improvements    
  Dmitry Ganyushin       : Spin-Orbit,Spin-Spin,Magnetic field MRCI      
  Miquel Garcia-Rates    : C-PCM and meta-GGA Hessian, CCSD/C-PCM, Gaussian charge scheme 
  Tiago L. C. Gouveia    : GS-ROHF, GS-ROCIS                             
  Yang Guo               : DLPNO-NEVPT2, F12-NEVPT2, CIM, IAO-localization        
  Andreas Hansen         : Spin unrestricted coupled pair/coupled cluster methods 
  Ingolf Harden          : AUTO-CI MPn and infrastructure                
  Benjamin Helmich-Paris : MC-RPA, TRAH-(SCF,CASSCF), AVAS, COSX integrals, SCF dyn. polar. 
  Lee Huntington         : MR-EOM, pCC                                   
  Robert Izsak           : Overlap fitted RIJCOSX, COSX-SCS-MP3, EOM     
  Riya Kayal             : Wick's Theorem for AUTO-CI, AUTO-CI UHF-CCSDT 
  Emily Kempfer          : AUTO-CI, RHF CISDT and CCSDT                  
  Christian Kollmar      : KDIIS, OOCD, Brueckner-CCSD(T), CCSD density, CASPT2, CASPT2-K, improved NEVPT2 
  Axel Koslowski         : Symmetry handling                             
  Simone Kossmann        : meta-GGA functionals, TD-DFT gradient, OOMP2, (MP2 Hessian; deprecated post 5.0) 
  Lucas Lang             : DCDCAS                                        
  Marvin Lechner         : AUTO-CI (C++ implementation), FIC-MRCC        
  Spencer Leger          : CASSCF response                               
  Dagmar Lenk            : GEPOL surface, SMD, ORCA-2-JSON               
  Dimitrios Liakos       : Extrapolation schemes; Compound Job, initial MDCI parallelization 
  Dimitrios Manganas     : Further ROCIS development; embedding schemes. LFT, Crystal Embedding 
  Dimitrios Pantazis     : SARC Basis sets                               
  Anastasios Papadopoulos: AUTO-CI, single reference methods and gradients 
  Taras Petrenko         : pre 6.0 DFT Hessian and TD-DFT gradient, (ASA, deprecated), ECA, 1-Electron XAS/XES, NRVS 
  Peter Pinski           : DLPNO-MP2, DLPNO-MP2 Gradient                 
  Christoph Reimann      : Effective Core Potentials                     
  Marius Retegan         : Local ZFS, SOC                                
  Christoph Riplinger    : Optimizer, TS searches, QM/MM, DLPNO-CCSD(T), (RO)-DLPNO pert. Triples 
  Michael Roemelt        : Original ROCIS implementation                 
  Masaaki Saitow         : Open-shell DLPNO-CCSD energy and density      
  Barbara Sandhoefer     : DKH picture change effects                    
  Kantharuban Sivalingam : CASSCF convergence/infrastructure, NEVPT2 and variants, FIC-MRCI 
  Bernardo de Souza      : ESD, SOC TD-DFT                               
  Georgi L. Stoychev     : AutoAux, RI-MP2 NMR, DLPNO-MP2 response, X2C  
  Van Anh Tran           : RI-MP2 g-tensors                              
  Willem Van den Heuvel  : Paramagnetic NMR                              
  Zikuan Wang            : NOTCH, Electric field optimization            
  Frank Wennmohs         : Technical directorship and infrastructure     
  Hang Xu                : AUTO-CI-Response properties                   
                                                                         
[FACCTs GmbH]                                                            
  Markus Bursch, Miquel Garcia-Rates, Christoph Riplinger, Bernardo de Souza, Georgi L. Stoychev 
                                                                 
  APM, Basis sets (HGBS, AHGBS, def-TZVP (Ac-Lr), def2-XVPD (La-Lu)), CI-OPT, improved COSX, DLPNO-Multilevel,           
  DOCKER, DRACO, updates on ESD, GOAT, IRC, LR-CPCM, MBIS, meta-GGA TD-DFT gradient, ML-optimized integration grids, 
  MM, NACMEs, nearIR, NEB, NEB-TS, NL-DFT gradient (VV10), 2- and 3-layer-ONIOM, interface openCOSMO-RS, QMMM,   
  Crystal-QMMM, SF, symmetry and pop. for TD-DFT, r2SCAN hybrids, SOLVATOR                                   
                                                                         
[Other institutions]                                                     
  V. Asgeirsson          : NEB                                           
  Christoph Bannwarth    : sTDA-DFT, sTD-DFT, PBEh-3c, B97-3c, D3        
  Sebastian Ehlert       : rSCAN, r2SCAN, r2SCAN-3c, D4, dhf basis sets  
  Marvin Friede          : D4 for Fr, Ra, Ac-Lr                          
  Lars Goerigk           : TD-DFT with DH, B97 family of functionals     
  Stefan Grimme          : VdW corrections, initial TS optimization, DFT functionals, gCP, sTDA/sTD-DF 
  Waldemar Hujo          : DFT-NL                                        
  H. Jonsson             : NEB                                           
  Holger Kruse           : gCP                                           
  Marcel Mueller         : wB97X-3c, vDZP basis set                      
  Hagen Neugebauer       : wr2SCAN                                       
  Tobias Risthaus        : range-separated hybrid DFT                    
  Lukas Wittmann         : regularized MP2, r2SCAN double-hybrids, wr2SCAN        
                                                                         
We gratefully acknowledge several colleagues who have allowed us to      
interface, adapt or use parts of their codes:                            
  Ed Valeev, F. Pavosevic, A. Kumar             : LibInt (2-el integral package), F12 methods 
  Garnet Chan, S. Sharma, J. Yang, R. Olivares  : DMRG                   
  Ulf Ekstrom                                   : XCFun DFT Library      
  Mihaly Kallay                                 : mrcc  (arbitrary order and MRCC methods)
  Frank Weinhold                                : gennbo (NPA and NBO analysis)           
  Simon Mueller                                 : openCOSMO-RS                            
  Christopher J. Cramer and Donald G. Truhlar   : smd solvation model                     
  S Lehtola, MJT Oliveira, MAL Marques          : LibXC Library                           
  Liviu Ungur et al                             : ANISO software                          


 Your calculation uses the libint2 library for the computation of 2-el integrals
 For citations please refer to: http://libint.valeyev.net

 Your ORCA version has been built with support for libXC version: 6.2.2
 For citations please refer to: https://libxc.gitlab.io

 This ORCA versions uses:
   CBLAS   interface :  Fast vector & matrix operations
   LAPACKE interface :  Fast linear algebra routines
   SCALAPACK package :  Parallel linear algebra routines
   Shared memory     :  Shared parallel matrices
   BLAS/LAPACK       :  OpenBLAS 0.3.27  USE64BITINT DYNAMIC_ARCH NO_AFFINITY SkylakeX SINGLE_THREADED
        Core in use  :  SkylakeX
   Copyright (c) 2011-2014, The OpenBLAS Project


================================================================================

----- Orbital basis set information -----
Your calculation utilizes the basis: 6-31G*
   H-He, Li-Ne : W. J. Hehre, R. Ditchfield and J.A. Pople, J. Chem. Phys. 56, 2257 (1972).
                 Note: He and Ne are unpublished basis sets taken from the Gaussian program.
                 Note: Li and B from J. D. Dill and J. A. Pople, J. Chem. Phys. 62, 2921 (1975).
   Na - Ar     : M. M. Francl, W. J. Pietro, W. J. Hehre, J. S. Binkley, M. S. Gordon, 
                 D. J. DeFrees and J. A. Pople, J. Chem. Phys. 77, 3654 (1982).
   K - Zn      : V. A. Rassolov, J. A. Pople, M. A. Ratner, and T. L. Windus, J. Chem. Phys. 109, 1223 (1998).

================================================================================
                                        WARNINGS
                       Please study these warnings very carefully!
================================================================================


================================================================================
                                       INPUT FILE
================================================================================
NAME = frag.inp
|  1> !HF 6-31G* EnGrad
|  2> %pal nprocs 1 end
|  3> *xyz 0 1
|  4> O 21.31548000 47.19077000 40.87238000
|  5> H 22.11097000 46.98487000 41.16553000
|  6> H 20.96265000 46.41737000 40.67613000
|  7> O 21.78987000 47.25010000 37.48256000
|  8> H 21.67133000 47.22017000 38.34638000
|  9> H 21.14108000 47.76263000 37.20411000
| 10> O 19.10373000 45.58535000 40.48424000
| 11> H 18.38270000 45.25544000 40.12036000
| 12> H 18.82331000 45.89664000 41.24949000
| 13> O 22.25294000 44.28778000 39.87163000
| 14> H 22.68414000 43.83080000 40.47691000
| 15> H 22.81575000 44.91633000 39.64956000
| 16> *
| 17> 
| 18>                          ****END OF INPUT****
================================================================================

                     *******************************
                     * Energy+Gradient Calculation *
                     *******************************

---------------------------------
CARTESIAN COORDINATES (ANGSTROEM)
---------------------------------
  O     21.315480   47.190770   40.872380
  H     22.110970   46.984870   41.165530
  H     20.962650   46.417370   40.676130
  O     21.789870   47.250100   37.482560
  H     21.671330   47.220170   38.346380
  H     21.141080   47.762630   37.204110
  O     19.103730   45.585350   40.484240
  H     18.382700   45.255440   40.120360
  H     18.823310   45.896640   41.249490
  O     22.252940   44.287780   39.871630
  H     22.684140   43.830800   40.476910
  H     22.815750   44.916330   39.649560

----------------------------
CARTESIAN COORDINATES (A.U.)
----------------------------
  NO LB      ZA    FRAG     MASS         X           Y           Z
   0 O     8.0000    0    15.999   40.280420   89.177631   77.237605
   1 H     1.0000    0     1.008   41.783678   88.788537   77.791578
   2 H     1.0000    0     1.008   39.613668   87.716117   76.866746
   3 O     8.0000    0    15.999   41.176887   89.289749   70.831773
   4 H     1.0000    0     1.008   40.952879   89.233189   72.464156
   5 H     1.0000    0     1.008   39.950851   90.258290   70.305579
   6 O     8.0000    0    15.999   36.100818   86.143827   76.504126
   7 H     1.0000    0     1.008   34.738269   85.520388   75.816493
   8 H     1.0000    0     1.008   35.570901   86.732080   77.950239
   9 O     8.0000    0    15.999   42.051962   83.691775   75.346461
  10 H     1.0000    0     1.008   42.866812   82.828208   76.490275
  11 H     1.0000    0     1.008   43.115519   84.879563   74.926810

--------------------------------
INTERNAL COORDINATES (ANGSTROEM)
--------------------------------
 O      0   0   0     0.000000000000     0.00000000     0.00000000
 H      1   0   0     0.872431127712     0.00000000     0.00000000
 H      1   2   0     0.872439471482   103.59872274     0.00000000
 O      3   1   2     3.402443464071    84.02176965   259.51268005
 H      4   3   1     0.872429096775    13.88503522     2.34365367
 H      4   3   1     0.872439033687   105.22135928   277.23706635
 O      3   1   2     2.045644792944   138.51760024   155.95761940
 H      7   3   1     0.872429666735   160.72623553   104.87007073
 H      7   3   1     0.872435901944    93.70851241   310.81868034
 O      3   1   2     2.616719721751   126.24180712   329.77871731
 H     10   3   1     0.872426523439   117.17456234    76.98324549
 H     10   3   1     0.872436406565    79.04835924   337.20315741

---------------------------
INTERNAL COORDINATES (A.U.)
---------------------------
 O      0   0   0     0.000000000000     0.00000000     0.00000000
 H      1   0   0     1.648655902083     0.00000000     0.00000000
 H      1   2   0     1.648671669524   103.59872274     0.00000000
 O      3   1   2     6.429686333245    84.02176965   259.51268005
 H      4   3   1     1.648652064169    13.88503522     2.34365367
 H      4   3   1     1.648670842211   105.22135928   277.23706635
 O      3   1   2     3.865708425947   138.51760024   155.95761940
 H      7   3   1     1.648653141238   160.72623553   104.87007073
 H      7   3   1     1.648664924074    93.70851241   310.81868034
 O      3   1   2     4.944883643340   126.24180712   329.77871731
 H     10   3   1     1.648647201269   117.17456234    76.98324549
 H     10   3   1     1.648665877670    79.04835924   337.20315741

---------------------
BASIS SET INFORMATION
---------------------
There are 2 groups of distinct atoms

 Group   1 Type O   : 10s4p1d contracted to 3s2p1d pattern {631/31/1}
 Group   2 Type H   : 4s contracted to 2s pattern {31}

Atom   0O    basis set group =>   1
Atom   1H    basis set group =>   2
Atom   2H    basis set group =>   2
Atom   3O    basis set group =>   1
Atom   4H    basis set group =>   2
Atom   5H    basis set group =>   2
Atom   6O    basis set group =>   1
Atom   7H    basis set group =>   2
Atom   8H    basis set group =>   2
Atom   9O    basis set group =>   1
Atom  10H    basis set group =>   2
Atom  11H    basis set group =>   2
------------------------------------------------------------------------------
                             ORCA STARTUP CALCULATIONS
------------------------------------------------------------------------------
------------------------------------------------------------------------------
                   ___                                                        
                  /   \      - P O W E R E D   B Y -                         
                 /     \                                                     
                 |  |  |   _    _      __       _____    __    __             
                 |  |  |  | |  | |    /  \     |  _  \  |  |  /  |          
                  \  \/   | |  | |   /    \    | | | |  |  | /  /          
                 / \  \   | |__| |  /  /\  \   | |_| |  |  |/  /          
                |  |  |   |  __  | /  /__\  \  |    /   |      \           
                |  |  |   | |  | | |   __   |  |    \   |  |\   \          
                \     /   | |  | | |  |  |  |  | |\  \  |  | \   \       
                 \___/    |_|  |_| |__|  |__|  |_| \__\ |__|  \__/        
                                                                              
                      - O R C A' S   B I G   F R I E N D -                    
                                      &                                       
                       - I N T E G R A L  F E E D E R -                       
                                                                              
 v1 FN, 2020, v2 2021, v3 2022-2024                                           
------------------------------------------------------------------------------


----------------------
SHARK INTEGRAL PACKAGE
----------------------

Number of atoms                             ...     12
Number of basis functions                   ...     72
Number of shells                            ...     40
Maximum angular momentum                    ...      2
Integral batch strategy                     ... SHARK/LIBINT Hybrid
RI-J (if used) integral strategy            ... SPLIT-RIJ (Revised 2003 algorithm where possible)
Printlevel                                  ...      1
Contraction scheme used                     ... SEGMENTED contraction
Prescreening option                         ... SCHWARTZ
   Thresh                                   ... 2.500e-11
   Tcut                                     ... 2.500e-12
   Tpresel                                  ... 2.500e-12 
Coulomb Range Separation                    ... NOT USED
Exchange Range Separation                   ... NOT USED
Multipole approximations                    ... NOT USED
Finite Nucleus Model                        ... NOT USED
CABS basis                                  ... NOT available
Auxiliary Coulomb fitting basis             ... NOT available
Auxiliary J/K fitting basis                 ... NOT available
Auxiliary Correlation fitting basis         ... NOT available
Auxiliary 'external' fitting basis          ... NOT available

Checking pre-screening integrals            ... done (  0.0 sec) Dimension = 40
Check shell pair data                       ... done (  0.0 sec)
Shell pair information
Shell pair cut-off parameter TPreSel        ...   2.5e-12
Total number of shell pairs                 ...       820
Shell pairs after pre-screening             ...       756
Total number of primitive shell pairs       ...      4386
Primitive shell pairs kept                  ...      2602
          la=0 lb=0:    368 shell pairs
          la=1 lb=0:    208 shell pairs
          la=1 lb=1:     35 shell pairs
          la=2 lb=0:    103 shell pairs
          la=2 lb=1:     32 shell pairs
          la=2 lb=2:     10 shell pairs

Calculating one electron integrals          ... done (  0.0 sec)
Calculating Nuclear repulsion               ... done (  0.0 sec) ENN=    132.296708641525 Eh

Diagonalization of the overlap matrix:
Smallest eigenvalue                        ... 3.321e-02
Time for diagonalization                   ...    0.001 sec
Threshold for overlap eigenvalues          ... 1.000e-07
Number of eigenvalues below threshold      ... 0
Time for construction of square roots      ...    0.004 sec
Total time needed                          ...    0.008 sec

-------------------
DFT GRID GENERATION
-------------------

General Integration Accuracy     IntAcc      ... 4.388
Radial Grid Type                 RadialGrid  ... OptM3 with GC (2021)
Angular Grid (max. ang.)         AngularGrid ... 4 (Lebedev-302)
Angular grid pruning method      GridPruning ... 4 (adaptive)
Weight generation scheme         WeightScheme... mBecke (2022)
Basis function cutoff            BFCut       ... 1.0000e-11
Integration weight cutoff        WCut        ... 1.0000e-14
Partially contracted basis set               ... off
Rotationally invariant grid construction     ... off
Angular grids for H and He will be reduced by one unit

Total number of grid points                  ...    50721
Total number of batches                      ...      799
Average number of points per batch           ...       63
Average number of grid points per atom       ...     4227
Initializing property integral containers    ... done (  0.0 sec)

SHARK setup successfully completed in   0.5 seconds

Maximum memory used throughout the entire STARTUP-calculation: 17.5 MB
-------------------------------------------------------------------------------
                                 ORCA GUESS
                   Start orbitals & Density for SCF / CASSCF
-------------------------------------------------------------------------------

------------
SCF SETTINGS
------------
Hamiltonian:
 Ab initio Hamiltonian  Method          .... Hartree-Fock(GTOs)


General Settings:
 Integral files         IntName         .... frag
 Hartree-Fock type      HFTyp           .... RHF
 Total Charge           Charge          ....    0
 Multiplicity           Mult            ....    1
 Number of Electrons    NEL             ....   40
 Basis Dimension        Dim             ....   72
 Nuclear Repulsion      ENuc            ....    132.2967086415 Eh

Convergence Acceleration:
 AO-DIIS                CNVDIIS         .... on
   Start iteration      DIISMaxIt       ....    12
   Startup error        DIISStart       ....  0.200000
   # of expansion vecs  DIISMaxEq       ....     5
   Bias factor          DIISBfac        ....   1.050
   Max. coefficient     DIISMaxC        ....  10.000
 MO-DIIS                CNVKDIIS        .... off
 Trust-Rad. Augm. Hess. CNVTRAH         .... auto
   Auto Start mean grad. ratio tolernc. ....  1.125000
   Auto Start start iteration           ....    50
   Auto Start num. interpolation iter.  ....    10
   Max. Number of Micro iterations      ....    24
   Max. Number of Macro iterations      .... Maxiter - #DIIS iter
   Number of Davidson start vectors     ....     2
   Converg. threshold    (grad. norm)   ....   1.000e-05
   Grad. Scal. Fac. for Micro threshold ....   0.100
   Minimum threshold for Micro iter.    ....   1.000e-02
   NR start threshold (gradient norm)   ....   1.000e-04
   Initial trust radius                 ....   0.400
   Minimum AH scaling param. (alpha)    ....   1.000
   Maximum AH scaling param. (alpha)    .... 1000.000
   Quad. conv. algorithm                .... NR
   White noise on init. David. guess    .... on
   Maximum white noise                  ....   0.010
   Pseudo random numbers                .... off
   Inactive MOs                         .... canonical
   Orbital update algorithm             .... Taylor
   Preconditioner                       .... Diag
   Full preconditioner red. dimension   ....   250
 SOSCF                  CNVSOSCF        .... on
   Start iteration      SOSCFMaxIt      ....   150
   Startup grad/error   SOSCFStart      ....  0.003300
   Hessian update       SOSCFHessUp     .... L-BFGS
 Level Shifting         CNVShift        .... on
   Level shift para.    LevelShift      ....    0.2500
   Turn off err/grad.   ShiftErr        ....    0.0010
 Zerner damping         CNVZerner       .... off
 Static damping         CNVDamp         .... on
   Fraction old density DampFac         ....    0.7000
   Max. Damping (<1)    DampMax         ....    0.9800
   Min. Damping (>=0)   DampMin         ....    0.0000
   Turn off err/grad.   DampErr         ....    0.1000

SCF Procedure:
 Maximum # iterations   MaxIter         ....   125
 SCF integral mode      SCFMode         .... Direct
   Integral package                     .... SHARK and LIBINT hybrid scheme
 Reset frequency        DirectResetFreq ....    20
 Integral Threshold     Thresh          ....  2.500e-11 Eh
 Primitive CutOff       TCut            ....  2.500e-12 Eh

Convergence Tolerance:
 Convergence Check Mode ConvCheckMode   .... Total+1el-Energy
 Convergence forced     ConvForced      .... 0
 Energy Change          TolE            ....  1.000e-08 Eh
 1-El. energy change                    ....  1.000e-05 Eh
 Orbital Gradient       TolG            ....  1.000e-05
 Orbital Rotation angle TolX            ....  1.000e-05
 DIIS Error             TolErr          ....  5.000e-07

------------------------------
INITIAL GUESS: MODEL POTENTIAL
------------------------------
Loading Hartree-Fock densities                     ... done
Calculating cut-offs                               ... done
Initializing the effective Hamiltonian             ... done
Setting up the integral package (SHARK)            ... done
Starting the Coulomb interaction                   ... done (   0.0 sec)
Making the grid                                    ... done (   0.1 sec)
Mapping shells                                     ... done
Starting the XC term evaluation                    ... done (   0.0 sec)
Transforming the Hamiltonian                       ... done (   0.0 sec)
Diagonalizing the Hamiltonian                      ... done (   0.0 sec)
Back transforming the eigenvectors                 ... done (   0.0 sec)
Now organizing SCF variables                       ... done
                      ------------------
                      INITIAL GUESS DONE (   0.2 sec)
                      ------------------
             **** ENERGY FILE WAS UPDATED (frag.en.tmp) ****
Finished Guess after   0.2 sec
Maximum memory used throughout the entire GUESS-calculation: 7.5 MB

-------------------------------------------------------------------------------------------
                                      ORCA LEAN-SCF
                              memory conserving SCF solver
-------------------------------------------------------------------------------------------

----------------------------------------D-I-I-S--------------------------------------------
Iteration    Energy (Eh)           Delta-E    RMSDP     MaxDP     DIISErr   Damp  Time(sec)
-------------------------------------------------------------------------------------------
               ***  Starting incremental Fock matrix formation  ***
    1    -303.5906527709789771     0.00e+00  6.17e-03  7.21e-02  3.26e-01  0.700   0.2
    2    -303.7462306943008343    -1.56e-01  4.19e-03  4.97e-02  1.97e-01  0.700   0.2
                               ***Turning on AO-DIIS***
    3    -303.8303549115332771    -8.41e-02  1.66e-03  2.11e-02  1.09e-01  0.700   0.2
    4    -303.8812223769126604    -5.09e-02  1.02e-03  1.35e-02  7.36e-02  0.700   0.2
    5    -303.9148602257540688    -3.36e-02  2.38e-03  3.19e-02  5.23e-02  0.000   0.2
                              *** Initializing SOSCF ***
---------------------------------------S-O-S-C-F--------------------------------------
Iteration    Energy (Eh)           Delta-E    RMSDP     MaxDP     MaxGrad    Time(sec)
--------------------------------------------------------------------------------------
    6    -303.9899446023741802    -7.51e-02  1.84e-04  1.82e-03  3.26e-03     0.2
               *** Restarting incremental Fock matrix formation ***
    7    -303.9900090818948684    -6.45e-05  1.14e-04  8.88e-04  4.91e-04     0.2
    8    -303.9900212542172540    -1.22e-05  7.99e-05  6.57e-04  3.21e-04     0.2
    9    -303.9900234580672986    -2.20e-06  1.18e-05  1.08e-04  9.91e-05     0.2
   10    -303.9900235862630780    -1.28e-07  1.61e-06  1.95e-05  1.04e-05     0.1
   11    -303.9900235890891054    -2.83e-09  7.77e-07  9.48e-06  3.15e-06     0.1
                 **** Energy Check signals convergence ****

               *****************************************************
               *                     SUCCESS                       *
               *           SCF CONVERGED AFTER  11 CYCLES          *
               *****************************************************

             **** ENERGY FILE WAS UPDATED (frag.en.tmp) ****

----------------
TOTAL SCF ENERGY
----------------

Total Energy       :       -303.99002358908911 Eh           -8271.98908 eV

Components:
Nuclear Repulsion  :        132.29670864152487 Eh            3599.97646 eV
Electronic Energy  :       -436.28673223061395 Eh          -11871.96554 eV
One Electron Energy:       -682.49348408644084 Eh          -18571.59186 eV
Two Electron Energy:        246.20675185582689 Eh            6699.62632 eV

Virial components:
Potential Energy   :       -609.51546136407069 Eh          -16585.75891 eV
Kinetic Energy     :        305.52543777498164 Eh            8313.76983 eV
Virial Ratio       :          1.99497451277028

---------------
SCF CONVERGENCE
---------------

  Last Energy change         ...    2.8260e-09  Tolerance :   1.0000e-08
  Last MAX-Density change    ...    9.4771e-06  Tolerance :   1.0000e-07
  Last RMS-Density change    ...    7.7652e-07  Tolerance :   5.0000e-09
  Last DIIS Error            ...    3.2619e-03  Tolerance :   5.0000e-07
  Last Orbital Gradient      ...    3.1519e-06  Tolerance :   1.0000e-05
  Last Orbital Rotation      ...    3.2256e-06  Tolerance :   1.0000e-05


----------------
ORBITAL ENERGIES
----------------

  NO   OCC          E(Eh)            E(eV) 
   0   2.0000     -20.547666      -559.1304 
   1   2.0000     -20.544698      -559.0497 
   2   2.0000     -20.528721      -558.6149 
   3   2.0000     -20.515026      -558.2422 
   4   2.0000      -1.402778       -38.1715 
   5   2.0000      -1.398117       -38.0447 
   6   2.0000      -1.381217       -37.5848 
   7   2.0000      -1.368602       -37.2416 
   8   2.0000      -0.769865       -20.9491 
   9   2.0000      -0.760464       -20.6933 
  10   2.0000      -0.741816       -20.1858 
  11   2.0000      -0.731934       -19.9169 
  12   2.0000      -0.603650       -16.4262 
  13   2.0000      -0.592088       -16.1115 
  14   2.0000      -0.580371       -15.7927 
  15   2.0000      -0.568304       -15.4643 
  16   2.0000      -0.515370       -14.0239 
  17   2.0000      -0.510123       -13.8812 
  18   2.0000      -0.495973       -13.4961 
  19   2.0000      -0.483205       -13.1487 
  20   0.0000       0.191451         5.2096 
  21   0.0000       0.233579         6.3560 
  22   0.0000       0.267474         7.2783 
  23   0.0000       0.289748         7.8844 
  24   0.0000       0.323047         8.7905 
  25   0.0000       0.339021         9.2252 
  26   0.0000       0.380646        10.3579 
  27   0.0000       0.457556        12.4507 
  28   0.0000       1.006548        27.3896 
  29   0.0000       1.042903        28.3788 
  30   0.0000       1.083873        29.4937 
*Only the first 10 virtual orbitals were printed.

                    ********************************
                    * MULLIKEN POPULATION ANALYSIS *
                    ********************************

-----------------------
MULLIKEN ATOMIC CHARGES
-----------------------
   0 O :   -0.936507
   1 H :    0.432616
   2 H :    0.505264
   3 O :   -0.913354
   4 H :    0.455362
   5 H :    0.441643
   6 O :   -0.892162
   7 H :    0.452164
   8 H :    0.449193
   9 O :   -0.882652
  10 H :    0.442950
  11 H :    0.445484
Sum of atomic charges:   -0.0000000

--------------------------------
MULLIKEN REDUCED ORBITAL CHARGES
--------------------------------
  0 O s       :     3.863981  s :     3.863981
      pz      :     1.897383  p :     5.039483
      px      :     1.487109
      py      :     1.654990
      dz2     :     0.004522  d :     0.033043
      dxz     :     0.003112
      dyz     :     0.003808
      dx2y2   :     0.013046
      dxy     :     0.008554

  1 H s       :     0.567384  s :     0.567384

  2 H s       :     0.494736  s :     0.494736

  3 O s       :     3.847725  s :     3.847725
      pz      :     1.470241  p :     5.032787
      px      :     1.733668
      py      :     1.828878
      dz2     :     0.015029  d :     0.032841
      dxz     :     0.004221
      dyz     :     0.001182
      dx2y2   :     0.002559
      dxy     :     0.009850

  4 H s       :     0.544638  s :     0.544638

  5 H s       :     0.558357  s :     0.558357

  6 O s       :     3.844967  s :     3.844967
      pz      :     1.512908  p :     5.014474
      px      :     1.643776
      py      :     1.857791
      dz2     :     0.006790  d :     0.032720
      dxz     :     0.010573
      dyz     :     0.002616
      dx2y2   :     0.006011
      dxy     :     0.006730

  7 H s       :     0.547836  s :     0.547836

  8 H s       :     0.550807  s :     0.550807

  9 O s       :     3.850437  s :     3.850437
      pz      :     1.713699  p :     4.998241
      px      :     1.704393
      py      :     1.580149
      dz2     :     0.004746  d :     0.033974
      dxz     :     0.009645
      dyz     :     0.002884
      dx2y2   :     0.001843
      dxy     :     0.014858

 10 H s       :     0.557050  s :     0.557050

 11 H s       :     0.554516  s :     0.554516



                     *******************************
                     * LOEWDIN POPULATION ANALYSIS *
                     *******************************

----------------------
LOEWDIN ATOMIC CHARGES
----------------------
   0 O :   -0.633173
   1 H :    0.306960
   2 H :    0.311356
   3 O :   -0.635984
   4 H :    0.309364
   5 H :    0.312989
   6 O :   -0.611540
   7 H :    0.317147
   8 H :    0.316195
   9 O :   -0.617900
  10 H :    0.312810
  11 H :    0.311778

-------------------------------
LOEWDIN REDUCED ORBITAL CHARGES
-------------------------------
  0 O s       :     3.549385  s :     3.549385
      pz      :     1.899176  p :     5.042837
      px      :     1.489166
      py      :     1.654495
      dz2     :     0.005060  d :     0.040952
      dxz     :     0.004192
      dyz     :     0.004349
      dx2y2   :     0.016493
      dxy     :     0.010858

  1 H s       :     0.693040  s :     0.693040

  2 H s       :     0.688644  s :     0.688644

  3 O s       :     3.551457  s :     3.551457
      pz      :     1.468476  p :     5.043477
      px      :     1.742338
      py      :     1.832663
      dz2     :     0.019492  d :     0.041050
      dxz     :     0.005330
      dyz     :     0.001646
      dx2y2   :     0.002658
      dxy     :     0.011925

  4 H s       :     0.690636  s :     0.690636

  5 H s       :     0.687011  s :     0.687011

  6 O s       :     3.550411  s :     3.550411
      pz      :     1.515462  p :     5.019622
      px      :     1.649177
      py      :     1.854983
      dz2     :     0.009140  d :     0.041507
      dxz     :     0.013522
      dyz     :     0.003722
      dx2y2   :     0.006775
      dxy     :     0.008348

  7 H s       :     0.682853  s :     0.682853

  8 H s       :     0.683805  s :     0.683805

  9 O s       :     3.556903  s :     3.556903
      pz      :     1.717711  p :     5.018141
      px      :     1.720317
      py      :     1.580113
      dz2     :     0.005733  d :     0.042856
      dxz     :     0.011697
      dyz     :     0.004478
      dx2y2   :     0.001910
      dxy     :     0.019038

 10 H s       :     0.687190  s :     0.687190

 11 H s       :     0.688222  s :     0.688222



                      *****************************
                      * MAYER POPULATION ANALYSIS *
                      *****************************

  NA   - Mulliken gross atomic population
  ZA   - Total nuclear charge
  QA   - Mulliken gross atomic charge
  VA   - Mayer's total valence
  BVA  - Mayer's bonded valence
  FA   - Mayer's free valence

  ATOM       NA         ZA         QA         VA         BVA        FA
  0 O      8.9365     8.0000    -0.9365     1.5212     1.5212     0.0000
  1 H      0.5674     1.0000     0.4326     0.7817     0.7817    -0.0000
  2 H      0.4947     1.0000     0.5053     0.7252     0.7252    -0.0000
  3 O      8.9134     8.0000    -0.9134     1.5283     1.5283     0.0000
  4 H      0.5446     1.0000     0.4554     0.7760     0.7760    -0.0000
  5 H      0.5584     1.0000     0.4416     0.7704     0.7704    -0.0000
  6 O      8.8922     8.0000    -0.8922     1.5667     1.5667    -0.0000
  7 H      0.5478     1.0000     0.4522     0.7626     0.7626     0.0000
  8 H      0.5508     1.0000     0.4492     0.7629     0.7629     0.0000
  9 O      8.8827     8.0000    -0.8827     1.5670     1.5670     0.0000
 10 H      0.5571     1.0000     0.4429     0.7679     0.7679     0.0000
 11 H      0.5545     1.0000     0.4455     0.7685     0.7685    -0.0000

  Mayer bond orders larger than 0.100000
B(  0-O ,  1-H ) :   0.7837 B(  0-O ,  2-H ) :   0.6922 B(  3-O ,  4-H ) :   0.7466 
B(  3-O ,  5-H ) :   0.7805 B(  6-O ,  7-H ) :   0.7706 B(  6-O ,  8-H ) :   0.7689 
B(  9-O , 10-H ) :   0.7766 B(  9-O , 11-H ) :   0.7691 

-------
TIMINGS
-------

Total SCF time: 0 days 0 hours 0 min 2 sec 

Total time                  ....       2.123 sec
Sum of individual times     ....       2.047 sec  ( 96.4%)

SCF preparation             ....       0.065 sec  (  3.0%)
Fock matrix formation       ....       1.677 sec  ( 79.0%)
  Startup                   ....       0.021 sec  (  1.3% of F)
  Coulomb+Exchange Fock     ....       1.591 sec  ( 94.9% of F)
Diagonalization             ....       0.000 sec  (  0.0%)
Density matrix formation    ....       0.082 sec  (  3.9%)
Total Energy calculation    ....       0.018 sec  (  0.8%)
Population analysis         ....       0.015 sec  (  0.7%)
Orbital Transformation      ....       0.018 sec  (  0.9%)
Orbital Orthonormalization  ....       0.000 sec  (  0.0%)
DIIS solution               ....       0.115 sec  (  5.4%)
SOSCF solution              ....       0.057 sec  (  2.7%)
Finished LeanSCF after   2.1 sec

Maximum memory used throughout the entire LEANSCF-calculation: 8.4 MB

-------------------------   --------------------
FINAL SINGLE POINT ENERGY      -303.990023589089
-------------------------   --------------------

------------------------------------------------------------------------------
                         ORCA SCF GRADIENT CALCULATION
------------------------------------------------------------------------------

Nuc. rep. gradient        (SHARK) ... done (  0.0 sec)
HCore & Overlap gradient  (SHARK) ... done (  0.0 sec)
Two-electron gradient     (SHARK) ... done (  0.6 sec)

------------------
CARTESIAN GRADIENT
------------------

   1   O   :    0.044079904   -0.117475207    0.012446226
   2   H   :   -0.103814730    0.017233022   -0.040275202
   3   H   :    0.057658060    0.100438185    0.030926792
   4   O   :   -0.091154267    0.056363350    0.069831050
   5   H   :    0.010571163    0.007682874   -0.115961288
   6   H   :    0.080968077   -0.064791572    0.043384659
   7   O   :   -0.111947317   -0.000997807    0.044186214
   8   H   :    0.087089961    0.046507155    0.056386065
   9   H   :    0.028216872   -0.044644110   -0.101456944
  10   O   :    0.114085784    0.017110156    0.040580963
  11   H   :   -0.048441362    0.066078791   -0.078803567
  12   H   :   -0.067312146   -0.083504838    0.038755032

Difference to translation invariance:
           :   -0.0000000000   -0.0000000001   -0.0000000000

Difference to rotation invariance:
           :   -0.0000003871   -0.0000001865   -0.0000003749

Norm of the Cartesian gradient     ...    0.4086064402
RMS gradient                       ...    0.0681010734
MAX gradient                       ...    0.1174752074

-------
TIMINGS
-------

Total SCF gradient time     ....        0.642 sec

Densities                   ....       0.000 sec  (  0.0%)
One electron gradient       ....       0.038 sec  (  5.9%)
Two electron gradient       ....       0.603 sec  ( 94.0%)

Maximum memory used throughout the entire SCFGRAD-calculation: 14.2 MB

------------------------------------------------------------------------------
                              ORCA PROPERTY CALCULATIONS
------------------------------------------------------------------------------

GBWName                                 ... frag.gbw
Number of atoms                         ...     12
Number of basis functions               ...     72
Max core memory                         ...   1024 MB

Electric properties:
Dipole moment                           ... YES
Quadrupole moment                       ...  NO
Static polarizability (Dipole/Dipole)   ...  NO
Static polarizability (Dipole/Quad.)    ...  NO
Static polarizability (Quad./Quad.)     ...  NO
Static polarizability (Velocity)        ...  NO

Atomic electric properties:
Dipole moment                           ...  NO
Quadrupole moment                       ...  NO
Static polarizability                   ...  NO

Choice of electric origin               ... Center of mass
Position of electric origin             ...    39.893743    87.066659    75.018766

General magnetic properties:
Magnetizability                         ...  NO

EPR properties:
g-Tensor (aka g-matrix)                 ...  NO
Zero-Field splitting spin-orbit         ...  NO
Zero-field splitting spin-spin          ...  NO
Hyperfine couplings                     ...  NO (   0 nuclei)
Quadrupole couplings                    ...  NO (   0 nuclei)
Contact density                         ...  NO (   0 nuclei)

NMR properties:
Chemical shifts                         ...  NO (   0 nuclei)
Spin-rotation constants                 ...  NO (   0 nuclei)
Spin-spin couplings                     ...  NO (   0 nuclei,    0 pairs)

Choice of magnetic origin               ... GIAO
Position of magnetic origin             ...     0.000000     0.000000     0.000000

Properties with geometric perturbations:
SCF Hessian                             ...  NO
IR spectrum                             ...  NO
VCD spectrum                            ...  NO
X-ray spectroscopy properties:
SCF XES/XAS/RIXS spectra                ...  NO


-------------
DIPOLE MOMENT
-------------

Method             : SCF
Type of density    : Electron Density
Multiplicity       :   1
Irrep              :   0
Energy             :  -303.9900235890891054 Eh
Relativity type    : 
Basis              : AO
                                X                 Y                 Z
Electronic contribution:     -0.097926482      -0.101952944      -0.029390975
Nuclear contribution   :     -0.276435291      -0.286123969       1.220948200
                        -----------------------------------------
Total Dipole Moment    :     -0.374361773      -0.388076912       1.191557225
                        -----------------------------------------
Magnitude (a.u.)       :      1.307883423
Magnitude (Debye)      :      3.324375469



--------------------
Rotational spectrum 
--------------------
 
Rotational constants in cm-1:             0.099074             0.071737             0.058126 
Rotational constants in MHz :          2970.152273          2150.621260          1742.583640 

Dipole components along the rotational axes: 
x,y,z [a.u.] :     1.248253    -0.093466    -0.379063 
x,y,z [Debye]:     3.172806    -0.237572    -0.963502 

 

Dipole moment calculation done in   0.0 sec 

Maximum memory used throughout the entire PROP-calculation: 2.9 MB

--------------------------------
SUGGESTED CITATIONS FOR THIS RUN
--------------------------------

Below you find a list of papers that are relevant to this ORCA run
We neither can nor want to force you to cite these papers, but we appreciate if you do
You receive ORCA, which is the product of decades of hard work by many enthusiastic individuals, for free
The only thing we kindly ask in return is that you cite our papers,
We deeply appreciate it, if you show your appreciation for ORCA by not just citing the generic ORCA reference.

Please note that relegating all ORCA citations to the supporting information does *not* help us.
SI sections are not indexed - citations you put there will not count into any citation statistics
But we need these citations in order to attract the funding resources that allow us to do what we are doing

Therefore, if you are a happy ORCA user, please consider citing a few of the papers listed below in the main body of your paper

In addition to the list printed below, the program has created the file frag.bibtex that contains the list in bibtex format
You can import this file easily into all common literature databanks and citation aid programs


List of essential papers. We consider these as the minimum necessary citations

  1. Neese,F.
     Software update: the ORCA program system, version 5.0
     WIRES Comput. Molec. Sci., 2022 12(1)e1606
     doi.org/10.1002/wcms.1606

List of papers to cite with high priority. The work reported in these papers was absolutely
necessary for this run to complete.
Our perspective: the developers of density functionals and basis sets usually get cited in chemistry papers
Good! But without the algorithms to do something with them, the functionals or basis sets would not do anything.
Hence, in our opinion, the algorithm design and method developments papers are equally worthy of getting cited

  1. Neese,F.
     The SHARK Integral Generation and Digestion System
     J. Comp. Chem., 2022  1-16
     doi.org/10.1002/jcc.26942

List of suggested additional citations. These are papers that are important in the 'surrounding' of 
of this run, or papers that preceded the highly important papers. If you like your results we are grateful for a citation.

  1. Neese,F.
     The ORCA program system
     WIRES Comput. Molec. Sci., 2012 2(1)73-78
     doi.org/10.1002/wcms.81
  2. Neese,F.
     Software update: the ORCA program system, version 4.0
     WIRES Comput. Molec. Sci., 2018 8(1)1-6
     doi.org/10.1002/wcms.1327
  3. Neese,F.; Wennmohs,F.; Becker,U.; Riplinger,C.
     The ORCA quantum chemistry program package
     J. Chem. Phys., 2020 152 Art. No. L224108
     doi.org/10.1063/5.0004608

List of optional additional citations

  1. Neese,F.
     Approximate second-order SCF convergence for spin unrestricted wavefunctions
     Chem. Phys. Lett., 2000 325(1-3)93-98
     doi.org/10.1016/s0009-2614(00)00662-x

Timings for individual modules:

Sum of individual times          ...        3.709 sec (=   0.062 min)
Startup calculation              ...        0.520 sec (=   0.009 min)  14.0 %
SCF iterations                   ...        2.435 sec (=   0.041 min)  65.7 %
Property calculations            ...        0.055 sec (=   0.001 min)   1.5 %
SCF Gradient evaluation          ...        0.699 sec (=   0.012 min)  18.8 %
                             ****ORCA TERMINATED NORMALLY****
TOTAL RUN TIME: 0 days 0 hours 0 minutes 3 seconds 932 msec
