
                                 *****************
                                 * O   R   C   A *
                                 *****************

                                            #,                                       
                                            ###                                      
                                            ####                                     
                                            #####                                    
                                            ######                                   
                                           ########,                                 
                                     ,,################,,,,,                         
                               ,,#################################,,                 
                          ,,##########################################,,             
                       ,#########################################, ''#####,          
                    ,#############################################,,   '####,        
                  ,##################################################,,,,####,       
                ,###########''''           ''''###############################       
              ,#####''   ,,,,##########,,,,          '''####'''          '####       
            ,##' ,,,,###########################,,,                        '##       
           ' ,,###''''                  '''############,,,                           
         ,,##''                                '''############,,,,        ,,,,,,###''
      ,#''                                            '''#######################'''  
     '                                                          ''''####''''         
             ,#######,   #######,   ,#######,      ##                                
            ,#'     '#,  ##    ##  ,#'     '#,    #''#        ,####,   ,####,        
            ##       ##  ##   ,#'  ##            #'  '#       #'       #'  '#        
            ##       ##  #######   ##           ,######,      #####,   #    #        
            '#,     ,#'  ##    ##  '#,     ,#' ,#      #,     #,   #   #,  ,#        
             '#######'   ##     ##  '#######'  #'      '#     '####' # '####'        



                #########################################################
                #                        -***-                          #
                #          Department of theory and spectroscopy        #
                #                                                       #
                #                      Frank Neese                      #
                #                                                       #
                #     Directorship, Architecture, Infrastructure        #
                #                    SHARK, DRIVERS                     #
                #        Core code/Algorithms in most modules           #
                #                                                       #
                #        Max Planck Institute fuer Kohlenforschung      #
                #                Kaiser Wilhelm Platz 1                 #
                #                 D-45470 Muelheim/Ruhr                 #
                #                      Germany                          #
                #                                                       #
                #                  All rights reserved                  #
                #                        -***-                          #
                #########################################################


                         Program Version 6.0.1  -  RELEASE   -


 With contributions from (in alphabetic order):
[Max-Planck-Institut fuer Kohlenforschung]                               
  Daniel Aravena         : Magnetic Suceptibility                        
  Michael Atanasov       : Ab Initio Ligand Field Theory (pilot matlab implementation)
  Alexander A. Auer      : GIAO ZORA, VPT2 properties, NMR spectrum      
  Ute Becker             : All parallelization in ORCA, NUMFREQ, NUMCALC 
  Giovanni Bistoni       : ED, misc. LED, open-shell LED, HFLD           
  Martin Brehm           : Molecular dynamics                            
  Dmytro Bykov           : pre 5.0 version of the SCF Hessian            
  Marcos Casanova-Páez   : Triplet and SCS-CIS(D). UHF-(DLPNO)-IP/EA/STEOM-CCSD. UHF-CVS-IP/STEOM-CCSD   
  Vijay G. Chilkuri      : MRCI spin determinant printing, contributions to CSF-ICE 
  Pauline Colinet        : FMM embedding                                 
  Dipayan Datta          : RHF DLPNO-CCSD density                        
  Achintya Kumar Dutta   : EOM-CC, STEOM-CC                              
  Nicolas Foglia         : Exact transition moments, OPA infrastructure, MCD improvements    
  Dmitry Ganyushin       : Spin-Orbit,Spin-Spin,Magnetic field MRCI      
  Miquel Garcia-Rates    : C-PCM and meta-GGA Hessian, CCSD/C-PCM, Gaussian charge scheme 
  Tiago L. C. Gouveia    : GS-ROHF, GS-ROCIS                             
  Yang Guo               : DLPNO-NEVPT2, F12-NEVPT2, CIM, IAO-localization        
  Andreas Hansen         : Spin unrestricted coupled pair/coupled cluster methods 
  Ingolf Harden          : AUTO-CI MPn and infrastructure                
  Benjamin Helmich-Paris : MC-RPA, TRAH-(SCF,CASSCF), AVAS, COSX integrals, SCF dyn. polar. 
  Lee Huntington         : MR-EOM, pCC                                   
  Robert Izsak           : Overlap fitted RIJCOSX, COSX-SCS-MP3, EOM     
  Riya Kayal             : Wick's Theorem for AUTO-CI, AUTO-CI UHF-CCSDT 
  Emily Kempfer          : AUTO-CI, RHF CISDT and CCSDT                  
  Christian Kollmar      : KDIIS, OOCD, Brueckner-CCSD(T), CCSD density, CASPT2, CASPT2-K, improved NEVPT2 
  Axel Koslowski         : Symmetry handling                             
  Simone Kossmann        : meta-GGA functionals, TD-DFT gradient, OOMP2, (MP2 Hessian; deprecated post 5.0) 
  Lucas Lang             : DCDCAS                                        
  Marvin Lechner         : AUTO-CI (C++ implementation), FIC-MRCC        
  Spencer Leger          : CASSCF response                               
  Dagmar Lenk            : GEPOL surface, SMD, ORCA-2-JSON               
  Dimitrios Liakos       : Extrapolation schemes; Compound Job, initial MDCI parallelization 
  Dimitrios Manganas     : Further ROCIS development; embedding schemes. LFT, Crystal Embedding 
  Dimitrios Pantazis     : SARC Basis sets                               
  Anastasios Papadopoulos: AUTO-CI, single reference methods and gradients 
  Taras Petrenko         : pre 6.0 DFT Hessian and TD-DFT gradient, (ASA, deprecated), ECA, 1-Electron XAS/XES, NRVS 
  Peter Pinski           : DLPNO-MP2, DLPNO-MP2 Gradient                 
  Christoph Reimann      : Effective Core Potentials                     
  Marius Retegan         : Local ZFS, SOC                                
  Christoph Riplinger    : Optimizer, TS searches, QM/MM, DLPNO-CCSD(T), (RO)-DLPNO pert. Triples 
  Michael Roemelt        : Original ROCIS implementation                 
  Masaaki Saitow         : Open-shell DLPNO-CCSD energy and density      
  Barbara Sandhoefer     : DKH picture change effects                    
  Kantharuban Sivalingam : CASSCF convergence/infrastructure, NEVPT2 and variants, FIC-MRCI 
  Bernardo de Souza      : ESD, SOC TD-DFT                               
  Georgi L. Stoychev     : AutoAux, RI-MP2 NMR, DLPNO-MP2 response, X2C  
  Van Anh Tran           : RI-MP2 g-tensors                              
  Willem Van den Heuvel  : Paramagnetic NMR                              
  Zikuan Wang            : NOTCH, Electric field optimization            
  Frank Wennmohs         : Technical directorship and infrastructure     
  Hang Xu                : AUTO-CI-Response properties                   
                                                                         
[FACCTs GmbH]                                                            
  Markus Bursch, Miquel Garcia-Rates, Christoph Riplinger, Bernardo de Souza, Georgi L. Stoychev 
                                                                 
  APM, Basis sets (HGBS, AHGBS, def-TZVP (Ac-Lr), def2-XVPD (La-Lu)), CI-OPT, improved COSX, DLPNO-Multilevel,           
  DOCKER, DRACO, updates on ESD, GOAT, IRC, LR-CPCM, MBIS, meta-GGA TD-DFT gradient, ML-optimized integration grids, 
  MM, NACMEs, nearIR, NEB, NEB-TS, NL-DFT gradient (VV10), 2- and 3-layer-ONIOM, interface openCOSMO-RS, QMMM,   
  Crystal-QMMM, SF, symmetry and pop. for TD-DFT, r2SCAN hybrids, SOLVATOR                                   
                                                                         
[Other institutions]                                                     
  V. Asgeirsson          : NEB                                           
  Christoph Bannwarth    : sTDA-DFT, sTD-DFT, PBEh-3c, B97-3c, D3        
  Sebastian Ehlert       : rSCAN, r2SCAN, r2SCAN-3c, D4, dhf basis sets  
  Marvin Friede          : D4 for Fr, Ra, Ac-Lr                          
  Lars Goerigk           : TD-DFT with DH, B97 family of functionals     
  Stefan Grimme          : VdW corrections, initial TS optimization, DFT functionals, gCP, sTDA/sTD-DF 
  Waldemar Hujo          : DFT-NL                                        
  H. Jonsson             : NEB                                           
  Holger Kruse           : gCP                                           
  Marcel Mueller         : wB97X-3c, vDZP basis set                      
  Hagen Neugebauer       : wr2SCAN                                       
  Tobias Risthaus        : range-separated hybrid DFT                    
  Lukas Wittmann         : regularized MP2, r2SCAN double-hybrids, wr2SCAN        
                                                                         
We gratefully acknowledge several colleagues who have allowed us to      
interface, adapt or use parts of their codes:                            
  Ed Valeev, F. Pavosevic, A. Kumar             : LibInt (2-el integral package), F12 methods 
  Garnet Chan, S. Sharma, J. Yang, R. Olivares  : DMRG                   
  Ulf Ekstrom                                   : XCFun DFT Library      
  Mihaly Kallay                                 : mrcc  (arbitrary order and MRCC methods)
  Frank Weinhold                                : gennbo (NPA and NBO analysis)           
  Simon Mueller                                 : openCOSMO-RS                            
  Christopher J. Cramer and Donald G. Truhlar   : smd solvation model                     
  S Lehtola, MJT Oliveira, MAL Marques          : LibXC Library                           
  Liviu Ungur et al                             : ANISO software                          


 Your calculation uses the libint2 library for the computation of 2-el integrals
 For citations please refer to: http://libint.valeyev.net

 Your ORCA version has been built with support for libXC version: 6.2.2
 For citations please refer to: https://libxc.gitlab.io

 This ORCA versions uses:
   CBLAS   interface :  Fast vector & matrix operations
   LAPACKE interface :  Fast linear algebra routines
   SCALAPACK package :  Parallel linear algebra routines
   Shared memory     :  Shared parallel matrices
   BLAS/LAPACK       :  OpenBLAS 0.3.27  USE64BITINT DYNAMIC_ARCH NO_AFFINITY SkylakeX SINGLE_THREADED
        Core in use  :  SkylakeX
   Copyright (c) 2011-2014, The OpenBLAS Project


================================================================================

----- Orbital basis set information -----
Your calculation utilizes the basis: 6-31G*
   H-He, Li-Ne : W. J. Hehre, R. Ditchfield and J.A. Pople, J. Chem. Phys. 56, 2257 (1972).
                 Note: He and Ne are unpublished basis sets taken from the Gaussian program.
                 Note: Li and B from J. D. Dill and J. A. Pople, J. Chem. Phys. 62, 2921 (1975).
   Na - Ar     : M. M. Francl, W. J. Pietro, W. J. Hehre, J. S. Binkley, M. S. Gordon, 
                 D. J. DeFrees and J. A. Pople, J. Chem. Phys. 77, 3654 (1982).
   K - Zn      : V. A. Rassolov, J. A. Pople, M. A. Ratner, and T. L. Windus, J. Chem. Phys. 109, 1223 (1998).

================================================================================
                                        WARNINGS
                       Please study these warnings very carefully!
================================================================================


================================================================================
                                       INPUT FILE
================================================================================
NAME = frag.inp
|  1> !HF 6-31G* EnGrad
|  2> %pal nprocs 1 end
|  3> *xyz 0 1
|  4> O 24.10596000 46.93173000 41.50917000
|  5> H 24.52341000 46.31399000 41.96223000
|  6> H 24.52212000 47.66562000 41.73132000
|  7> O 20.35232000 49.63574000 40.01023000
|  8> H 20.79050000 48.92392000 40.26012000
|  9> H 19.54326000 49.49202000 40.30334000
| 10> O 22.25294000 44.28778000 39.87163000
| 11> H 22.68414000 43.83080000 40.47691000
| 12> H 22.81575000 44.91633000 39.64956000
| 13> O 21.99613000 48.36911000 43.54199000
| 14> H 21.97702000 49.24128000 43.53308000
| 15> H 21.46413000 48.14557000 42.88766000
| 16> *
| 17> 
| 18>                          ****END OF INPUT****
================================================================================

                     *******************************
                     * Energy+Gradient Calculation *
                     *******************************

---------------------------------
CARTESIAN COORDINATES (ANGSTROEM)
---------------------------------
  O     24.105960   46.931730   41.509170
  H     24.523410   46.313990   41.962230
  H     24.522120   47.665620   41.731320
  O     20.352320   49.635740   40.010230
  H     20.790500   48.923920   40.260120
  H     19.543260   49.492020   40.303340
  O     22.252940   44.287780   39.871630
  H     22.684140   43.830800   40.476910
  H     22.815750   44.916330   39.649560
  O     21.996130   48.369110   43.541990
  H     21.977020   49.241280   43.533080
  H     21.464130   48.145570   42.887660

----------------------------
CARTESIAN COORDINATES (A.U.)
----------------------------
  NO LB      ZA    FRAG     MASS         X           Y           Z
   0 O     8.0000    0    15.999   45.553663   88.688117   78.440963
   1 H     1.0000    0     1.008   46.342529   87.520757   79.297123
   2 H     1.0000    0     1.008   46.340091   90.074968   78.860766
   3 O     8.0000    0    15.999   38.460311   93.797955   75.608377
   4 H     1.0000    0     1.008   39.288351   92.452810   76.080601
   5 H     1.0000    0     1.008   36.931409   93.526364   76.162275
   6 O     8.0000    0    15.999   42.051962   83.691775   75.346461
   7 H     1.0000    0     1.008   42.866812   82.828208   76.490275
   8 H     1.0000    0     1.008   43.115519   84.879563   74.926810
   9 O     8.0000    0    15.999   41.566662   91.404371   82.282436
  10 H     1.0000    0     1.008   41.530549   93.052534   82.265599
  11 H     1.0000    0     1.008   40.561327   90.981942   81.045932

--------------------------------
INTERNAL COORDINATES (ANGSTROEM)
--------------------------------
 O      0   0   0     0.000000000000     0.00000000     0.00000000
 H      1   0   0     0.872427976225     0.00000000     0.00000000
 H      1   2   0     0.872430111929   103.60043743     0.00000000
 O      1   2   3     4.862952236379   157.38780147   238.36472283
 H      4   1   2     0.872430190273    21.62011441   320.05077009
 H      4   1   2     0.872437386922   121.37625074   357.75029485
 O      1   2   3     3.620178445118    87.86200240   173.44416787
 H      7   1   2     0.872426523439    79.38192524     7.15185819
 H      7   1   2     0.872436406565    42.16311252   242.85979500
 O      3   1   2     3.186541935877    87.26422674   254.97016683
 H     10   3   1     0.872424832923   103.43046951   210.28054201
 H     10   3   1     0.872434456277    90.03694945   314.27919388

---------------------------
INTERNAL COORDINATES (A.U.)
---------------------------
 O      0   0   0     0.000000000000     0.00000000     0.00000000
 H      1   0   0     1.648649946636     0.00000000     0.00000000
 H      1   2   0     1.648653982532   103.60043743     0.00000000
 O      1   2   3     9.189647929096   157.38780147   238.36472283
 H      4   1   2     1.648654130581    21.62011441   320.05077009
 H      4   1   2     1.648667730277   121.37625074   357.75029485
 O      1   2   3     6.841145817199    87.86200240   173.44416787
 H      7   1   2     1.648647201269    79.38192524     7.15185819
 H      7   1   2     1.648665877670    42.16311252   242.85979500
 O      3   1   2     6.021691573062    87.26422674   254.97016683
 H     10   3   1     1.648644006656   103.43046951   210.28054201
 H     10   3   1     1.648662192161    90.03694945   314.27919388

---------------------
BASIS SET INFORMATION
---------------------
There are 2 groups of distinct atoms

 Group   1 Type O   : 10s4p1d contracted to 3s2p1d pattern {631/31/1}
 Group   2 Type H   : 4s contracted to 2s pattern {31}

Atom   0O    basis set group =>   1
Atom   1H    basis set group =>   2
Atom   2H    basis set group =>   2
Atom   3O    basis set group =>   1
Atom   4H    basis set group =>   2
Atom   5H    basis set group =>   2
Atom   6O    basis set group =>   1
Atom   7H    basis set group =>   2
Atom   8H    basis set group =>   2
Atom   9O    basis set group =>   1
Atom  10H    basis set group =>   2
Atom  11H    basis set group =>   2
------------------------------------------------------------------------------
                             ORCA STARTUP CALCULATIONS
------------------------------------------------------------------------------
------------------------------------------------------------------------------
                   ___                                                        
                  /   \      - P O W E R E D   B Y -                         
                 /     \                                                     
                 |  |  |   _    _      __       _____    __    __             
                 |  |  |  | |  | |    /  \     |  _  \  |  |  /  |          
                  \  \/   | |  | |   /    \    | | | |  |  | /  /          
                 / \  \   | |__| |  /  /\  \   | |_| |  |  |/  /          
                |  |  |   |  __  | /  /__\  \  |    /   |      \           
                |  |  |   | |  | | |   __   |  |    \   |  |\   \          
                \     /   | |  | | |  |  |  |  | |\  \  |  | \   \       
                 \___/    |_|  |_| |__|  |__|  |_| \__\ |__|  \__/        
                                                                              
                      - O R C A' S   B I G   F R I E N D -                    
                                      &                                       
                       - I N T E G R A L  F E E D E R -                       
                                                                              
 v1 FN, 2020, v2 2021, v3 2022-2024                                           
------------------------------------------------------------------------------


----------------------
SHARK INTEGRAL PACKAGE
----------------------

Number of atoms                             ...     12
Number of basis functions                   ...     72
Number of shells                            ...     40
Maximum angular momentum                    ...      2
Integral batch strategy                     ... SHARK/LIBINT Hybrid
RI-J (if used) integral strategy            ... SPLIT-RIJ (Revised 2003 algorithm where possible)
Printlevel                                  ...      1
Contraction scheme used                     ... SEGMENTED contraction
Prescreening option                         ... SCHWARTZ
   Thresh                                   ... 2.500e-11
   Tcut                                     ... 2.500e-12
   Tpresel                                  ... 2.500e-12 
Coulomb Range Separation                    ... NOT USED
Exchange Range Separation                   ... NOT USED
Multipole approximations                    ... NOT USED
Finite Nucleus Model                        ... NOT USED
CABS basis                                  ... NOT available
Auxiliary Coulomb fitting basis             ... NOT available
Auxiliary J/K fitting basis                 ... NOT available
Auxiliary Correlation fitting basis         ... NOT available
Auxiliary 'external' fitting basis          ... NOT available

Checking pre-screening integrals            ... done (  0.0 sec) Dimension = 40
Check shell pair data                       ... done (  0.0 sec)
Shell pair information
Shell pair cut-off parameter TPreSel        ...   2.5e-12
Total number of shell pairs                 ...       820
Shell pairs after pre-screening             ...       676
Total number of primitive shell pairs       ...      4386
Primitive shell pairs kept                  ...      2273
          la=0 lb=0:    338 shell pairs
          la=1 lb=0:    188 shell pairs
          la=1 lb=1:     32 shell pairs
          la=2 lb=0:     85 shell pairs
          la=2 lb=1:     26 shell pairs
          la=2 lb=2:      7 shell pairs

Calculating one electron integrals          ... done (  0.0 sec)
Calculating Nuclear repulsion               ... done (  0.0 sec) ENN=    114.180722065362 Eh

Diagonalization of the overlap matrix:
Smallest eigenvalue                        ... 4.481e-02
Time for diagonalization                   ...    0.001 sec
Threshold for overlap eigenvalues          ... 1.000e-07
Number of eigenvalues below threshold      ... 0
Time for construction of square roots      ...    0.003 sec
Total time needed                          ...    0.007 sec

-------------------
DFT GRID GENERATION
-------------------

General Integration Accuracy     IntAcc      ... 4.388
Radial Grid Type                 RadialGrid  ... OptM3 with GC (2021)
Angular Grid (max. ang.)         AngularGrid ... 4 (Lebedev-302)
Angular grid pruning method      GridPruning ... 4 (adaptive)
Weight generation scheme         WeightScheme... mBecke (2022)
Basis function cutoff            BFCut       ... 1.0000e-11
Integration weight cutoff        WCut        ... 1.0000e-14
Partially contracted basis set               ... off
Rotationally invariant grid construction     ... off
Angular grids for H and He will be reduced by one unit

Total number of grid points                  ...    50862
Total number of batches                      ...      800
Average number of points per batch           ...       63
Average number of grid points per atom       ...     4238
Initializing property integral containers    ... done (  0.0 sec)

SHARK setup successfully completed in   0.5 seconds

Maximum memory used throughout the entire STARTUP-calculation: 17.3 MB
-------------------------------------------------------------------------------
                                 ORCA GUESS
                   Start orbitals & Density for SCF / CASSCF
-------------------------------------------------------------------------------

------------
SCF SETTINGS
------------
Hamiltonian:
 Ab initio Hamiltonian  Method          .... Hartree-Fock(GTOs)


General Settings:
 Integral files         IntName         .... frag
 Hartree-Fock type      HFTyp           .... RHF
 Total Charge           Charge          ....    0
 Multiplicity           Mult            ....    1
 Number of Electrons    NEL             ....   40
 Basis Dimension        Dim             ....   72
 Nuclear Repulsion      ENuc            ....    114.1807220654 Eh

Convergence Acceleration:
 AO-DIIS                CNVDIIS         .... on
   Start iteration      DIISMaxIt       ....    12
   Startup error        DIISStart       ....  0.200000
   # of expansion vecs  DIISMaxEq       ....     5
   Bias factor          DIISBfac        ....   1.050
   Max. coefficient     DIISMaxC        ....  10.000
 MO-DIIS                CNVKDIIS        .... off
 Trust-Rad. Augm. Hess. CNVTRAH         .... auto
   Auto Start mean grad. ratio tolernc. ....  1.125000
   Auto Start start iteration           ....    50
   Auto Start num. interpolation iter.  ....    10
   Max. Number of Micro iterations      ....    24
   Max. Number of Macro iterations      .... Maxiter - #DIIS iter
   Number of Davidson start vectors     ....     2
   Converg. threshold    (grad. norm)   ....   1.000e-05
   Grad. Scal. Fac. for Micro threshold ....   0.100
   Minimum threshold for Micro iter.    ....   1.000e-02
   NR start threshold (gradient norm)   ....   1.000e-04
   Initial trust radius                 ....   0.400
   Minimum AH scaling param. (alpha)    ....   1.000
   Maximum AH scaling param. (alpha)    .... 1000.000
   Quad. conv. algorithm                .... NR
   White noise on init. David. guess    .... on
   Maximum white noise                  ....   0.010
   Pseudo random numbers                .... off
   Inactive MOs                         .... canonical
   Orbital update algorithm             .... Taylor
   Preconditioner                       .... Diag
   Full preconditioner red. dimension   ....   250
 SOSCF                  CNVSOSCF        .... on
   Start iteration      SOSCFMaxIt      ....   150
   Startup grad/error   SOSCFStart      ....  0.003300
   Hessian update       SOSCFHessUp     .... L-BFGS
 Level Shifting         CNVShift        .... on
   Level shift para.    LevelShift      ....    0.2500
   Turn off err/grad.   ShiftErr        ....    0.0010
 Zerner damping         CNVZerner       .... off
 Static damping         CNVDamp         .... on
   Fraction old density DampFac         ....    0.7000
   Max. Damping (<1)    DampMax         ....    0.9800
   Min. Damping (>=0)   DampMin         ....    0.0000
   Turn off err/grad.   DampErr         ....    0.1000

SCF Procedure:
 Maximum # iterations   MaxIter         ....   125
 SCF integral mode      SCFMode         .... Direct
   Integral package                     .... SHARK and LIBINT hybrid scheme
 Reset frequency        DirectResetFreq ....    20
 Integral Threshold     Thresh          ....  2.500e-11 Eh
 Primitive CutOff       TCut            ....  2.500e-12 Eh

Convergence Tolerance:
 Convergence Check Mode ConvCheckMode   .... Total+1el-Energy
 Convergence forced     ConvForced      .... 0
 Energy Change          TolE            ....  1.000e-08 Eh
 1-El. energy change                    ....  1.000e-05 Eh
 Orbital Gradient       TolG            ....  1.000e-05
 Orbital Rotation angle TolX            ....  1.000e-05
 DIIS Error             TolErr          ....  5.000e-07

------------------------------
INITIAL GUESS: MODEL POTENTIAL
------------------------------
Loading Hartree-Fock densities                     ... done
Calculating cut-offs                               ... done
Initializing the effective Hamiltonian             ... done
Setting up the integral package (SHARK)            ... done
Starting the Coulomb interaction                   ... done (   0.0 sec)
Making the grid                                    ... done (   0.1 sec)
Mapping shells                                     ... done
Starting the XC term evaluation                    ... done (   0.0 sec)
Transforming the Hamiltonian                       ... done (   0.0 sec)
Diagonalizing the Hamiltonian                      ... done (   0.0 sec)
Back transforming the eigenvectors                 ... done (   0.0 sec)
Now organizing SCF variables                       ... done
                      ------------------
                      INITIAL GUESS DONE (   0.1 sec)
                      ------------------
             **** ENERGY FILE WAS UPDATED (frag.en.tmp) ****
Finished Guess after   0.2 sec
Maximum memory used throughout the entire GUESS-calculation: 7.3 MB

-------------------------------------------------------------------------------------------
                                      ORCA LEAN-SCF
                              memory conserving SCF solver
-------------------------------------------------------------------------------------------

----------------------------------------D-I-I-S--------------------------------------------
Iteration    Energy (Eh)           Delta-E    RMSDP     MaxDP     DIISErr   Damp  Time(sec)
-------------------------------------------------------------------------------------------
               ***  Starting incremental Fock matrix formation  ***
    1    -303.5679083826856299     0.00e+00  6.26e-03  7.30e-02  3.30e-01  0.700   0.2
    2    -303.7294551014247759    -1.62e-01  4.25e-03  5.00e-02  2.00e-01  0.700   0.2
                               ***Turning on AO-DIIS***
    3    -303.8167154575035056    -8.73e-02  1.67e-03  2.13e-02  1.12e-01  0.700   0.1
    4    -303.8694161464420063    -5.27e-02  1.01e-03  1.37e-02  7.61e-02  0.700   0.1
    5    -303.9042476933199168    -3.48e-02  2.33e-03  3.27e-02  5.42e-02  0.000   0.1
    6    -303.9819297600886330    -7.77e-02  1.64e-04  1.82e-03  3.42e-03  0.000   0.2
                              *** Initializing SOSCF ***
---------------------------------------S-O-S-C-F--------------------------------------
Iteration    Energy (Eh)           Delta-E    RMSDP     MaxDP     MaxGrad    Time(sec)
--------------------------------------------------------------------------------------
    7    -303.9819927001310589    -6.29e-05  1.03e-04  7.64e-04  1.16e-03     0.1
               *** Restarting incremental Fock matrix formation ***
    8    -303.9820050133822633    -1.23e-05  4.66e-05  4.77e-04  2.28e-04     0.1
    9    -303.9820063195439275    -1.31e-06  2.94e-05  2.45e-04  9.56e-05     0.1
   10    -303.9820065626603878    -2.43e-07  3.88e-06  4.44e-05  3.40e-05     0.1
   11    -303.9820065760484340    -1.34e-08  8.99e-07  9.36e-06  5.63e-06     0.1
   12    -303.9820065765883328    -5.40e-10  1.91e-07  2.01e-06  9.90e-07     0.1
                 **** Energy Check signals convergence ****

               *****************************************************
               *                     SUCCESS                       *
               *           SCF CONVERGED AFTER  12 CYCLES          *
               *****************************************************

             **** ENERGY FILE WAS UPDATED (frag.en.tmp) ****

----------------
TOTAL SCF ENERGY
----------------

Total Energy       :       -303.98200657658833 Eh           -8271.77093 eV

Components:
Nuclear Repulsion  :        114.18072206536225 Eh            3107.01541 eV
Electronic Energy  :       -418.16272864195059 Eh          -11378.78633 eV
One Electron Energy:       -646.02143714491092 Eh          -17579.13701 eV
Two Electron Energy:        227.85870850296033 Eh            6200.35068 eV

Virial components:
Potential Energy   :       -609.49886681820885 Eh          -16585.30735 eV
Kinetic Energy     :        305.51686024162052 Eh            8313.53642 eV
Virial Ratio       :          1.99497620634155

---------------
SCF CONVERGENCE
---------------

  Last Energy change         ...    5.3990e-10  Tolerance :   1.0000e-08
  Last MAX-Density change    ...    2.0064e-06  Tolerance :   1.0000e-07
  Last RMS-Density change    ...    1.9074e-07  Tolerance :   5.0000e-09
  Last DIIS Error            ...    1.1575e-03  Tolerance :   5.0000e-07
  Last Orbital Gradient      ...    9.8991e-07  Tolerance :   1.0000e-05
  Last Orbital Rotation      ...    1.0790e-06  Tolerance :   1.0000e-05


----------------
ORBITAL ENERGIES
----------------

  NO   OCC          E(Eh)            E(eV) 
   0   2.0000     -20.546772      -559.1061 
   1   2.0000     -20.543766      -559.0243 
   2   2.0000     -20.540300      -558.9300 
   3   2.0000     -20.529551      -558.6375 
   4   2.0000      -1.399668       -38.0869 
   5   2.0000      -1.397270       -38.0217 
   6   2.0000      -1.393481       -37.9185 
   7   2.0000      -1.383015       -37.6338 
   8   2.0000      -0.762935       -20.7605 
   9   2.0000      -0.759760       -20.6741 
  10   2.0000      -0.756014       -20.5722 
  11   2.0000      -0.745782       -20.2937 
  12   2.0000      -0.599782       -16.3209 
  13   2.0000      -0.594595       -16.1798 
  14   2.0000      -0.591002       -16.0820 
  15   2.0000      -0.580849       -15.8057 
  16   2.0000      -0.518415       -14.1068 
  17   2.0000      -0.510794       -13.8994 
  18   2.0000      -0.501337       -13.6421 
  19   2.0000      -0.496922       -13.5219 
  20   0.0000       0.179304         4.8791 
  21   0.0000       0.212871         5.7925 
  22   0.0000       0.256632         6.9833 
  23   0.0000       0.272751         7.4219 
  24   0.0000       0.306395         8.3374 
  25   0.0000       0.321554         8.7499 
  26   0.0000       0.342115         9.3094 
  27   0.0000       0.379378        10.3234 
  28   0.0000       1.034056        28.1381 
  29   0.0000       1.046210        28.4688 
  30   0.0000       1.050723        28.5916 
*Only the first 10 virtual orbitals were printed.

                    ********************************
                    * MULLIKEN POPULATION ANALYSIS *
                    ********************************

-----------------------
MULLIKEN ATOMIC CHARGES
-----------------------
   0 O :   -0.893042
   1 H :    0.444945
   2 H :    0.450246
   3 O :   -0.890727
   4 H :    0.447013
   5 H :    0.444308
   6 O :   -0.894660
   7 H :    0.440950
   8 H :    0.451240
   9 O :   -0.888153
  10 H :    0.443599
  11 H :    0.444281
Sum of atomic charges:    0.0000000

--------------------------------
MULLIKEN REDUCED ORBITAL CHARGES
--------------------------------
  0 O s       :     3.843986  s :     3.843986
      pz      :     1.849626  p :     5.016297
      px      :     1.800777
      py      :     1.365894
      dz2     :     0.003060  d :     0.032758
      dxz     :     0.006855
      dyz     :     0.008183
      dx2y2   :     0.000822
      dxy     :     0.013839

  1 H s       :     0.555055  s :     0.555055

  2 H s       :     0.549754  s :     0.549754

  3 O s       :     3.847867  s :     3.847867
      pz      :     1.911939  p :     5.009217
      px      :     1.417847
      py      :     1.679431
      dz2     :     0.003576  d :     0.033643
      dxz     :     0.006423
      dyz     :     0.005797
      dx2y2   :     0.009780
      dxy     :     0.008067

  4 H s       :     0.552987  s :     0.552987

  5 H s       :     0.555692  s :     0.555692

  6 O s       :     3.845833  s :     3.845833
      pz      :     1.716008  p :     5.015565
      px      :     1.715524
      py      :     1.584033
      dz2     :     0.004498  d :     0.033263
      dxz     :     0.009501
      dyz     :     0.002860
      dx2y2   :     0.001690
      dxy     :     0.014713

  7 H s       :     0.559050  s :     0.559050

  8 H s       :     0.548760  s :     0.548760

  9 O s       :     3.847271  s :     3.847271
      pz      :     1.729666  p :     5.007414
      px      :     1.817977
      py      :     1.459771
      dz2     :     0.007226  d :     0.033468
      dxz     :     0.010437
      dyz     :     0.001714
      dx2y2   :     0.012386
      dxy     :     0.001705

 10 H s       :     0.556401  s :     0.556401

 11 H s       :     0.555719  s :     0.555719



                     *******************************
                     * LOEWDIN POPULATION ANALYSIS *
                     *******************************

----------------------
LOEWDIN ATOMIC CHARGES
----------------------
   0 O :   -0.627919
   1 H :    0.313255
   2 H :    0.316321
   3 O :   -0.625890
   4 H :    0.312846
   5 H :    0.313450
   6 O :   -0.628862
   7 H :    0.311387
   8 H :    0.315526
   9 O :   -0.624250
  10 H :    0.312837
  11 H :    0.311300

-------------------------------
LOEWDIN REDUCED ORBITAL CHARGES
-------------------------------
  0 O s       :     3.553524  s :     3.553524
      pz      :     1.856429  p :     5.033059
      px      :     1.809988
      py      :     1.366641
      dz2     :     0.003635  d :     0.041337
      dxz     :     0.007274
      dyz     :     0.010874
      dx2y2   :     0.001645
      dxy     :     0.017909

  1 H s       :     0.686745  s :     0.686745

  2 H s       :     0.683679  s :     0.683679

  3 O s       :     3.555689  s :     3.555689
      pz      :     1.915693  p :     5.027784
      px      :     1.422530
      py      :     1.689561
      dz2     :     0.004235  d :     0.042416
      dxz     :     0.008079
      dyz     :     0.006200
      dx2y2   :     0.013035
      dxy     :     0.010867

  4 H s       :     0.687154  s :     0.687154

  5 H s       :     0.686550  s :     0.686550

  6 O s       :     3.554488  s :     3.554488
      pz      :     1.719971  p :     5.032468
      px      :     1.727716
      py      :     1.584780
      dz2     :     0.005482  d :     0.041906
      dxz     :     0.011532
      dyz     :     0.004402
      dx2y2   :     0.001761
      dxy     :     0.018729

  7 H s       :     0.688613  s :     0.688613

  8 H s       :     0.684474  s :     0.684474

  9 O s       :     3.555366  s :     3.555366
      pz      :     1.735350  p :     5.026580
      px      :     1.822895
      py      :     1.468334
      dz2     :     0.009104  d :     0.042305
      dxz     :     0.012687
      dyz     :     0.002275
      dx2y2   :     0.016150
      dxy     :     0.002088

 10 H s       :     0.687163  s :     0.687163

 11 H s       :     0.688700  s :     0.688700



                      *****************************
                      * MAYER POPULATION ANALYSIS *
                      *****************************

  NA   - Mulliken gross atomic population
  ZA   - Total nuclear charge
  QA   - Mulliken gross atomic charge
  VA   - Mayer's total valence
  BVA  - Mayer's bonded valence
  FA   - Mayer's free valence

  ATOM       NA         ZA         QA         VA         BVA        FA
  0 O      8.8930     8.0000    -0.8930     1.5563     1.5563     0.0000
  1 H      0.5551     1.0000     0.4449     0.7669     0.7669     0.0000
  2 H      0.5498     1.0000     0.4502     0.7650     0.7650     0.0000
  3 O      8.8907     8.0000    -0.8907     1.5515     1.5515    -0.0000
  4 H      0.5530     1.0000     0.4470     0.7655     0.7655     0.0000
  5 H      0.5557     1.0000     0.4443     0.7669     0.7669     0.0000
  6 O      8.8947     8.0000    -0.8947     1.5482     1.5482    -0.0000
  7 H      0.5590     1.0000     0.4410     0.7696     0.7696     0.0000
  8 H      0.5488     1.0000     0.4512     0.7650     0.7650     0.0000
  9 O      8.8882     8.0000    -0.8882     1.5560     1.5560    -0.0000
 10 H      0.5564     1.0000     0.4436     0.7675     0.7675     0.0000
 11 H      0.5557     1.0000     0.4443     0.7697     0.7697     0.0000

  Mayer bond orders larger than 0.100000
B(  0-O ,  1-H ) :   0.7755 B(  0-O ,  2-H ) :   0.7707 B(  3-O ,  4-H ) :   0.7722 
B(  3-O ,  5-H ) :   0.7765 B(  6-O ,  7-H ) :   0.7791 B(  6-O ,  8-H ) :   0.7685 
B(  9-O , 10-H ) :   0.7767 B(  9-O , 11-H ) :   0.7729 

-------
TIMINGS
-------

Total SCF time: 0 days 0 hours 0 min 1 sec 

Total time                  ....       1.819 sec
Sum of individual times     ....       1.743 sec  ( 95.8%)

SCF preparation             ....       0.075 sec  (  4.1%)
Fock matrix formation       ....       1.312 sec  ( 72.2%)
  Startup                   ....       0.028 sec  (  2.2% of F)
  Coulomb+Exchange Fock     ....       1.224 sec  ( 93.2% of F)
Diagonalization             ....       0.000 sec  (  0.0%)
Density matrix formation    ....       0.101 sec  (  5.6%)
Total Energy calculation    ....       0.027 sec  (  1.5%)
Population analysis         ....       0.019 sec  (  1.0%)
Orbital Transformation      ....       0.028 sec  (  1.6%)
Orbital Orthonormalization  ....       0.000 sec  (  0.0%)
DIIS solution               ....       0.138 sec  (  7.6%)
SOSCF solution              ....       0.042 sec  (  2.3%)
Finished LeanSCF after   1.8 sec

Maximum memory used throughout the entire LEANSCF-calculation: 8.2 MB

-------------------------   --------------------
FINAL SINGLE POINT ENERGY      -303.982006576588
-------------------------   --------------------

------------------------------------------------------------------------------
                         ORCA SCF GRADIENT CALCULATION
------------------------------------------------------------------------------

Nuc. rep. gradient        (SHARK) ... done (  0.0 sec)
HCore & Overlap gradient  (SHARK) ... done (  0.0 sec)
Two-electron gradient     (SHARK) ... done (  0.4 sec)

------------------
CARTESIAN GRADIENT
------------------

   1   O   :    0.095171470    0.016688214    0.083669865
   2   H   :   -0.047539762    0.085049543   -0.057180063
   3   H   :   -0.046385172   -0.100288816   -0.024878791
   4   O   :   -0.043436815   -0.099331852    0.059193689
   5   H   :   -0.065061991    0.089809127   -0.026123875
   6   H   :    0.108047873    0.010457186   -0.033121802
   7   O   :    0.115283710    0.021394890    0.045010184
   8   H   :   -0.048163347    0.064046535   -0.079019677
   9   H   :   -0.066954073   -0.086777607    0.033353584
  10   O   :   -0.063289604    0.073278796   -0.077686585
  11   H   :   -0.002807626   -0.113420491   -0.006151172
  12   H   :    0.065135337    0.039094475    0.082934643

Difference to translation invariance:
           :   -0.0000000000   -0.0000000000   -0.0000000000

Difference to rotation invariance:
           :   -0.0000000164    0.0000005032   -0.0000000767

Norm of the Cartesian gradient     ...    0.4069184548
RMS gradient                       ...    0.0678197425
MAX gradient                       ...    0.1152837095

-------
TIMINGS
-------

Total SCF gradient time     ....        0.429 sec

Densities                   ....       0.000 sec  (  0.0%)
One electron gradient       ....       0.035 sec  (  8.1%)
Two electron gradient       ....       0.394 sec  ( 91.8%)

Maximum memory used throughout the entire SCFGRAD-calculation: 14.0 MB

------------------------------------------------------------------------------
                              ORCA PROPERTY CALCULATIONS
------------------------------------------------------------------------------

GBWName                                 ... frag.gbw
Number of atoms                         ...     12
Number of basis functions               ...     72
Max core memory                         ...   1024 MB

Electric properties:
Dipole moment                           ... YES
Quadrupole moment                       ...  NO
Static polarizability (Dipole/Dipole)   ...  NO
Static polarizability (Dipole/Quad.)    ...  NO
Static polarizability (Quad./Quad.)     ...  NO
Static polarizability (Velocity)        ...  NO

Atomic electric properties:
Dipole moment                           ...  NO
Quadrupole moment                       ...  NO
Static polarizability                   ...  NO

Choice of electric origin               ... Center of mass
Position of electric origin             ...    41.932089    89.397691    77.944360

General magnetic properties:
Magnetizability                         ...  NO

EPR properties:
g-Tensor (aka g-matrix)                 ...  NO
Zero-Field splitting spin-orbit         ...  NO
Zero-field splitting spin-spin          ...  NO
Hyperfine couplings                     ...  NO (   0 nuclei)
Quadrupole couplings                    ...  NO (   0 nuclei)
Contact density                         ...  NO (   0 nuclei)

NMR properties:
Chemical shifts                         ...  NO (   0 nuclei)
Spin-rotation constants                 ...  NO (   0 nuclei)
Spin-spin couplings                     ...  NO (   0 nuclei,    0 pairs)

Choice of magnetic origin               ... GIAO
Position of magnetic origin             ...     0.000000     0.000000     0.000000

Properties with geometric perturbations:
SCF Hessian                             ...  NO
IR spectrum                             ...  NO
VCD spectrum                            ...  NO
X-ray spectroscopy properties:
SCF XES/XAS/RIXS spectra                ...  NO


-------------
DIPOLE MOMENT
-------------

Method             : SCF
Type of density    : Electron Density
Multiplicity       :   1
Irrep              :   0
Energy             :  -303.9820065765883328 Eh
Relativity type    : 
Basis              : AO
                                X                 Y                 Z
Electronic contribution:     -0.028736593       0.028019038      -0.034844916
Nuclear contribution   :      0.753810764       0.067263063       0.780904102
                        -----------------------------------------
Total Dipole Moment    :      0.725074171       0.095282101       0.746059186
                        -----------------------------------------
Magnitude (a.u.)       :      1.044708352
Magnitude (Debye)      :      2.655437600



--------------------
Rotational spectrum 
--------------------
 
Rotational constants in cm-1:             0.073782             0.043466             0.031894 
Rotational constants in MHz :          2211.917783          1303.072277           956.161508 

Dipole components along the rotational axes: 
x,y,z [a.u.] :     0.021780     1.030054    -0.173002 
x,y,z [Debye]:     0.055359     2.618189    -0.439737 

 

Dipole moment calculation done in   0.0 sec 

Maximum memory used throughout the entire PROP-calculation: 2.7 MB

--------------------------------
SUGGESTED CITATIONS FOR THIS RUN
--------------------------------

Below you find a list of papers that are relevant to this ORCA run
We neither can nor want to force you to cite these papers, but we appreciate if you do
You receive ORCA, which is the product of decades of hard work by many enthusiastic individuals, for free
The only thing we kindly ask in return is that you cite our papers,
We deeply appreciate it, if you show your appreciation for ORCA by not just citing the generic ORCA reference.

Please note that relegating all ORCA citations to the supporting information does *not* help us.
SI sections are not indexed - citations you put there will not count into any citation statistics
But we need these citations in order to attract the funding resources that allow us to do what we are doing

Therefore, if you are a happy ORCA user, please consider citing a few of the papers listed below in the main body of your paper

In addition to the list printed below, the program has created the file frag.bibtex that contains the list in bibtex format
You can import this file easily into all common literature databanks and citation aid programs


List of essential papers. We consider these as the minimum necessary citations

  1. Neese,F.
     Software update: the ORCA program system, version 5.0
     WIRES Comput. Molec. Sci., 2022 12(1)e1606
     doi.org/10.1002/wcms.1606

List of papers to cite with high priority. The work reported in these papers was absolutely
necessary for this run to complete.
Our perspective: the developers of density functionals and basis sets usually get cited in chemistry papers
Good! But without the algorithms to do something with them, the functionals or basis sets would not do anything.
Hence, in our opinion, the algorithm design and method developments papers are equally worthy of getting cited

  1. Neese,F.
     The SHARK Integral Generation and Digestion System
     J. Comp. Chem., 2022  1-16
     doi.org/10.1002/jcc.26942

List of suggested additional citations. These are papers that are important in the 'surrounding' of 
of this run, or papers that preceded the highly important papers. If you like your results we are grateful for a citation.

  1. Neese,F.
     The ORCA program system
     WIRES Comput. Molec. Sci., 2012 2(1)73-78
     doi.org/10.1002/wcms.81
  2. Neese,F.
     Software update: the ORCA program system, version 4.0
     WIRES Comput. Molec. Sci., 2018 8(1)1-6
     doi.org/10.1002/wcms.1327
  3. Neese,F.; Wennmohs,F.; Becker,U.; Riplinger,C.
     The ORCA quantum chemistry program package
     J. Chem. Phys., 2020 152 Art. No. L224108
     doi.org/10.1063/5.0004608

List of optional additional citations

  1. Neese,F.
     Approximate second-order SCF convergence for spin unrestricted wavefunctions
     Chem. Phys. Lett., 2000 325(1-3)93-98
     doi.org/10.1016/s0009-2614(00)00662-x

Timings for individual modules:

Sum of individual times          ...        3.158 sec (=   0.053 min)
Startup calculation              ...        0.521 sec (=   0.009 min)  16.5 %
SCF iterations                   ...        2.092 sec (=   0.035 min)  66.2 %
Property calculations            ...        0.061 sec (=   0.001 min)   1.9 %
SCF Gradient evaluation          ...        0.485 sec (=   0.008 min)  15.3 %
                             ****ORCA TERMINATED NORMALLY****
TOTAL RUN TIME: 0 days 0 hours 0 minutes 3 seconds 406 msec
